# vtk DataFile Version 3.0
#This file was generated by the deal.II library on 2020/9/8 at 21:47:23
ASCII
DATASET UNSTRUCTURED_GRID

POINTS 2916 double
0 0.3 0
0.0214286 0.278571 0
0 0.330769 0
0.0225653 0.309796 0
0 0.330769 0
0.0225653 0.309796 0
0 0.361538 0
0.023703 0.341021 0
0 0.361538 0
0.023703 0.341021 0
0 0.392308 0
0.0248416 0.372246 0
0 0.392308 0
0.0248416 0.372246 0
0 0.423077 0
0.0259811 0.403469 0
0 0.423077 0
0.0259811 0.403469 0
0 0.453846 0
0.0271214 0.434693 0
0 0.453846 0
0.0271214 0.434693 0
0 0.484615 0
0.0282627 0.465916 0
0 0.484615 0
0.0282627 0.465916 0
0 0.515385 0
0.0294049 0.497139 0
0 0.515385 0
0.0294049 0.497139 0
0 0.546154 0
0.030548 0.528361 0
0 0.546154 0
0.030548 0.528361 0
0 0.576923 0
0.031692 0.559583 0
0 0.576923 0
0.031692 0.559583 0
0 0.607692 0
0.0328368 0.590805 0
0 0.607692 0
0.0328368 0.590805 0
0 0.638462 0
0.0339826 0.622026 0
0 0.638462 0
0.0339826 0.622026 0
0 0.669231 0
0.0351293 0.653246 0
0 0.669231 0
0.0351293 0.653246 0
0 0.7 0
0.0362769 0.684467 0
0 0.7 0
0.0362769 0.684467 0
0.0214286 0.721429 0
0.0580547 0.706681 0
0.0214286 0.721429 0
0.0580547 0.706681 0
0.0428571 0.742857 0
0.079038 0.729241 0
0.0428571 0.742857 0
0.079038 0.729241 0
0.0642857 0.764286 0
0.10002 0.751803 0
0.0642857 0.764286 0
0.10002 0.751803 0
0.0857143 0.785714 0
0.121002 0.774364 0
0.0857143 0.785714 0
0.121002 0.774364 0
0.107143 0.807143 0
0.141983 0.796926 0
0.107143 0.807143 0
0.141983 0.796926 0
0.128571 0.828571 0
0.162963 0.819488 0
0.128571 0.828571 0
0.162963 0.819488 0
0.15 0.85 0
0.183942 0.842051 0
0.15 0.85 0
0.183942 0.842051 0
0.171429 0.871429 0
0.20492 0.864614 0
0.171429 0.871429 0
0.20492 0.864614 0
0.192857 0.892857 0
0.225897 0.887177 0
0.192857 0.892857 0
0.225897 0.887177 0
0.214286 0.914286 0
0.246873 0.909741 0
0.214286 0.914286 0
0.246873 0.909741 0
0.235714 0.935714 0
0.267848 0.932305 0
0.235714 0.935714 0
0.267848 0.932305 0
0.257143 0.957143 0
0.288823 0.95487 0
0.257143 0.957143 0
0.288823 0.95487 0
0.278571 0.978571 0
0.309796 0.977435 0
0.278571 0.978571 0
0.309796 0.977435 0
0.3 1 0
0.330769 1 0
0.0214286 0.278571 0
0.0428571 0.257143 0
0.0225653 0.309796 0
0.0451303 0.288823 0
0.0225653 0.309796 0
0.0451303 0.288823 0
0.023703 0.341021 0
0.0474053 0.320502 0
0.023703 0.341021 0
0.0474053 0.320502 0
0.0248416 0.372246 0
0.049682 0.352181 0
0.0248416 0.372246 0
0.049682 0.352181 0
0.0259811 0.403469 0
0.0519606 0.383858 0
0.0259811 0.403469 0
0.0519606 0.383858 0
0.0271214 0.434693 0
0.0542409 0.415535 0
0.0271214 0.434693 0
0.0542409 0.415535 0
0.0282627 0.465916 0
0.0565231 0.447211 0
0.0282627 0.465916 0
0.0565231 0.447211 0
0.0294049 0.497139 0
0.0588071 0.478887 0
0.0294049 0.497139 0
0.0588071 0.478887 0
0.030548 0.528361 0
0.0610928 0.510561 0
0.030548 0.528361 0
0.0610928 0.510561 0
0.031692 0.559583 0
0.0633804 0.542235 0
0.031692 0.559583 0
0.0633804 0.542235 0
0.0328368 0.590805 0
0.0656697 0.573908 0
0.0328368 0.590805 0
0.0656697 0.573908 0
0.0339826 0.622026 0
0.0679609 0.60558 0
0.0339826 0.622026 0
0.0679609 0.60558 0
0.0351293 0.653246 0
0.0702539 0.637252 0
0.0351293 0.653246 0
0.0702539 0.637252 0
0.0362769 0.684467 0
0.0725486 0.668922 0
0.0362769 0.684467 0
0.0725486 0.668922 0
0.0580547 0.706681 0
0.0946756 0.691921 0
0.0580547 0.706681 0
0.0946756 0.691921 0
0.079038 0.729241 0
0.115214 0.715615 0
0.079038 0.729241 0
0.115214 0.715615 0
0.10002 0.751803 0
0.135751 0.73931 0
0.10002 0.751803 0
0.135751 0.73931 0
0.121002 0.774364 0
0.156286 0.763005 0
0.121002 0.774364 0
0.156286 0.763005 0
0.141983 0.796926 0
0.176819 0.786701 0
0.141983 0.796926 0
0.176819 0.786701 0
0.162963 0.819488 0
0.197351 0.810398 0
0.162963 0.819488 0
0.197351 0.810398 0
0.183942 0.842051 0
0.21788 0.834095 0
0.183942 0.842051 0
0.21788 0.834095 0
0.20492 0.864614 0
0.238408 0.857794 0
0.20492 0.864614 0
0.238408 0.857794 0
0.225897 0.887177 0
0.258934 0.881493 0
0.225897 0.887177 0
0.258934 0.881493 0
0.246873 0.909741 0
0.279459 0.905193 0
0.246873 0.909741 0
0.279459 0.905193 0
0.267848 0.932305 0
0.299981 0.928893 0
0.267848 0.932305 0
0.299981 0.928893 0
0.288823 0.95487 0
0.320502 0.952595 0
0.288823 0.95487 0
0.320502 0.952595 0
0.309796 0.977435 0
0.341021 0.976297 0
0.309796 0.977435 0
0.341021 0.976297 0
0.330769 1 0
0.361538 1 0
0.0428571 0.257143 0
0.0642857 0.235714 0
0.0451303 0.288823 0
0.0676949 0.267848 0
0.0451303 0.288823 0
0.0676949 0.267848 0
0.0474053 0.320502 0
0.0711067 0.299981 0
0.0474053 0.320502 0
0.0711067 0.299981 0
0.049682 0.352181 0
0.0745213 0.332113 0
0.049682 0.352181 0
0.0745213 0.332113 0
0.0519606 0.383858 0
0.0779385 0.364244 0
0.0519606 0.383858 0
0.0779385 0.364244 0
0.0542409 0.415535 0
0.0813585 0.396373 0
0.0542409 0.415535 0
0.0813585 0.396373 0
0.0565231 0.447211 0
0.0847811 0.428501 0
0.0565231 0.447211 0
0.0847811 0.428501 0
0.0588071 0.478887 0
0.0882065 0.460628 0
0.0588071 0.478887 0
0.0882065 0.460628 0
0.0610928 0.510561 0
0.0916345 0.492754 0
0.0610928 0.510561 0
0.0916345 0.492754 0
0.0633804 0.542235 0
0.0950653 0.524879 0
0.0633804 0.542235 0
0.0950653 0.524879 0
0.0656697 0.573908 0
0.0984987 0.557002 0
0.0656697 0.573908 0
0.0984987 0.557002 0
0.0679609 0.60558 0
0.101935 0.589125 0
0.0679609 0.60558 0
0.101935 0.589125 0
0.0702539 0.637252 0
0.105374 0.621246 0
0.0702539 0.637252 0
0.105374 0.621246 0
0.0725486 0.668922 0
0.108815 0.653366 0
0.0725486 0.668922 0
0.108815 0.653366 0
0.0946756 0.691921 0
0.131291 0.67715 0
0.0946756 0.691921 0
0.131291 0.67715 0
0.115214 0.715615 0
0.151386 0.701978 0
0.115214 0.715615 0
0.151386 0.701978 0
0.135751 0.73931 0
0.171477 0.726807 0
0.135751 0.73931 0
0.171477 0.726807 0
0.156286 0.763005 0
0.191566 0.751637 0
0.156286 0.763005 0
0.191566 0.751637 0
0.176819 0.786701 0
0.211652 0.776468 0
0.176819 0.786701 0
0.211652 0.776468 0
0.197351 0.810398 0
0.231736 0.8013 0
0.197351 0.810398 0
0.231736 0.8013 0
0.21788 0.834095 0
0.251816 0.826133 0
0.21788 0.834095 0
0.251816 0.826133 0
0.238408 0.857794 0
0.271895 0.850968 0
0.238408 0.857794 0
0.271895 0.850968 0
0.258934 0.881493 0
0.29197 0.875804 0
0.258934 0.881493 0
0.29197 0.875804 0
0.279459 0.905193 0
0.312043 0.900641 0
0.279459 0.905193 0
0.312043 0.900641 0
0.299981 0.928893 0
0.332113 0.925479 0
0.299981 0.928893 0
0.332113 0.925479 0
0.320502 0.952595 0
0.352181 0.950318 0
0.320502 0.952595 0
0.352181 0.950318 0
0.341021 0.976297 0
0.372246 0.975158 0
0.341021 0.976297 0
0.372246 0.975158 0
0.361538 1 0
0.392308 1 0
0.0642857 0.235714 0
0.0857143 0.214286 0
0.0676949 0.267848 0
0.090259 0.246873 0
0.0676949 0.267848 0
0.090259 0.246873 0
0.0711067 0.299981 0
0.0948074 0.279459 0
0.0711067 0.299981 0
0.0948074 0.279459 0
0.0745213 0.332113 0
0.0993594 0.312043 0
0.0745213 0.332113 0
0.0993594 0.312043 0
0.0779385 0.364244 0
0.103915 0.344626 0
0.0779385 0.364244 0
0.103915 0.344626 0
0.0813585 0.396373 0
0.108474 0.377207 0
0.0813585 0.396373 0
0.108474 0.377207 0
0.0847811 0.428501 0
0.113037 0.409786 0
0.0847811 0.428501 0
0.113037 0.409786 0
0.0882065 0.460628 0
0.117603 0.442364 0
0.0882065 0.460628 0
0.117603 0.442364 0
0.0916345 0.492754 0
0.122173 0.47494 0
0.0916345 0.492754 0
0.122173 0.47494 0
0.0950653 0.524879 0
0.126747 0.507515 0
0.0950653 0.524879 0
0.126747 0.507515 0
0.0984987 0.557002 0
0.131324 0.540088 0
0.0984987 0.557002 0
0.131324 0.540088 0
0.101935 0.589125 0
0.135904 0.57266 0
0.101935 0.589125 0
0.135904 0.57266 0
0.105374 0.621246 0
0.140489 0.60523 0
0.105374 0.621246 0
0.140489 0.60523 0
0.108815 0.653366 0
0.145077 0.637798 0
0.108815 0.653366 0
0.145077 0.637798 0
0.131291 0.67715 0
0.167902 0.662368 0
0.131291 0.67715 0
0.167902 0.662368 0
0.151386 0.701978 0
0.187552 0.68833 0
0.151386 0.701978 0
0.187552 0.68833 0
0.171477 0.726807 0
0.207199 0.714294 0
0.171477 0.726807 0
0.207199 0.714294 0
0.191566 0.751637 0
0.226842 0.740259 0
0.191566 0.751637 0
0.226842 0.740259 0
0.211652 0.776468 0
0.246481 0.766227 0
0.211652 0.776468 0
0.246481 0.766227 0
0.231736 0.8013 0
0.266117 0.792195 0
0.231736 0.8013 0
0.266117 0.792195 0
0.251816 0.826133 0
0.28575 0.818165 0
0.251816 0.826133 0
0.28575 0.818165 0
0.271895 0.850968 0
0.305379 0.844137 0
0.271895 0.850968 0
0.305379 0.844137 0
0.29197 0.875804 0
0.325004 0.87011 0
0.29197 0.875804 0
0.325004 0.87011 0
0.312043 0.900641 0
0.344626 0.896085 0
0.312043 0.900641 0
0.344626 0.896085 0
0.332113 0.925479 0
0.364244 0.922061 0
0.332113 0.925479 0
0.364244 0.922061 0
0.352181 0.950318 0
0.383858 0.948039 0
0.352181 0.950318 0
0.383858 0.948039 0
0.372246 0.975158 0
0.403469 0.974019 0
0.372246 0.975158 0
0.403469 0.974019 0
0.392308 1 0
0.423077 1 0
0.0857143 0.214286 0
0.107143 0.192857 0
0.090259 0.246873 0
0.112823 0.225897 0
0.090259 0.246873 0
0.112823 0.225897 0
0.0948074 0.279459 0
0.118507 0.258934 0
0.0948074 0.279459 0
0.118507 0.258934 0
0.0993594 0.312043 0
0.124196 0.29197 0
0.0993594 0.312043 0
0.124196 0.29197 0
0.103915 0.344626 0
0.12989 0.325004 0
0.103915 0.344626 0
0.12989 0.325004 0
0.108474 0.377207 0
0.135588 0.358036 0
0.108474 0.377207 0
0.135588 0.358036 0
0.113037 0.409786 0
0.14129 0.391065 0
0.113037 0.409786 0
0.14129 0.391065 0
0.117603 0.442364 0
0.146997 0.424093 0
0.117603 0.442364 0
0.146997 0.424093 0
0.122173 0.47494 0
0.152708 0.457119 0
0.122173 0.47494 0
0.152708 0.457119 0
0.126747 0.507515 0
0.158424 0.490143 0
0.126747 0.507515 0
0.158424 0.490143 0
0.131324 0.540088 0
0.164145 0.523165 0
0.131324 0.540088 0
0.164145 0.523165 0
0.135904 0.57266 0
0.16987 0.556185 0
0.135904 0.57266 0
0.16987 0.556185 0
0.140489 0.60523 0
0.175599 0.589203 0
0.140489 0.60523 0
0.175599 0.589203 0
0.145077 0.637798 0
0.181333 0.622219 0
0.145077 0.637798 0
0.181333 0.622219 0
0.167902 0.662368 0
0.204507 0.647574 0
0.167902 0.662368 0
0.204507 0.647574 0
0.187552 0.68833 0
0.223714 0.674672 0
0.187552 0.68833 0
0.223714 0.674672 0
0.207199 0.714294 0
0.242916 0.701772 0
0.207199 0.714294 0
0.242916 0.701772 0
0.226842 0.740259 0
0.262114 0.728873 0
0.226842 0.740259 0
[...]
POINT_DATA 2916
SCALARS c double 1
LOOKUP_TABLE default
0.573468 0.537012 0.59753 0.560634 0.59753 0.560634 0.617847 0.581779 0.617847 0.581779 0.635594 0.600216 0.635594 0.600216 0.651062 0.616261 0.651062 0.616261 0.664323 0.630046 0.664323 0.630046 0.675354 0.641587 0.675354 0.641587 0.684075 0.650837 0.684075 0.650837 0.690343 0.657694 0.690343 0.657694 0.693945 0.661999 0.693945 0.661999 0.694553 0.66352 0.694553 0.66352 0.691628 0.661917 0.691628 0.661917 0.684128 0.656696 0.684128 0.656696 0.668637 0.647573 0.668637 0.647573 0.640681 0.626488 0.640681 0.626488 0.620336 0.609255 0.620336 0.609255 0.604157 0.595118 0.604157 0.595118 0.590992 0.583505 0.590992 0.583505 0.580213 0.573989 0.580213 0.573989 0.5714 0.566244 0.5714 0.566244 0.564244 0.560014 0.564244 0.560014 0.558504 0.555084 0.558504 0.555084 0.553978 0.551273 0.553978 0.551273 0.550495 0.548418 0.550495 0.548418 0.547902 0.546372 0.547902 0.546372 0.546062 0.545001 0.546062 0.545001 0.544856 0.544176 0.544856 0.544176 0.54422 0.543703 0.537012 0.503423 0.560634 0.525665 0.560634 0.525665 0.581779 0.546652 0.581779 0.546652 0.600216 0.565556 0.600216 0.565556 0.616261 0.582191 0.616261 0.582191 0.630046 0.596599 0.630046 0.596599 0.641587 0.608801 0.641587 0.608801 0.650837 0.618773 0.650837 0.618773 0.657694 0.626452 0.657694 0.626452 0.661999 0.631743 0.661999 0.631743 0.66352 0.634521 0.66352 0.634521 0.661917 0.634637 0.661917 0.634637 0.656696 0.631981 0.656696 0.631981 0.647573 0.626592 0.647573 0.626592 0.626488 0.609757 0.626488 0.609757 0.609255 0.595999 0.609255 0.595999 0.595118 0.584378 0.595118 0.584378 0.583505 0.574714 0.583505 0.574714 0.573989 0.566778 0.573989 0.566778 0.566244 0.560356 0.566244 0.560356 0.560014 0.555256 0.560014 0.555256 0.555084 0.551302 0.555084 0.551302 0.551273 0.548339 0.551273 0.548339 0.548418 0.546217 0.548418 0.546217 0.546372 0.544798 0.546372 0.544798 0.545001 0.543939 0.545001 0.543939 0.544176 0.543473 0.544176 0.543473 0.543703 0.54318 0.503423 0.47107 0.525665 0.492339 0.525665 0.492339 0.546652 0.512811 0.546652 0.512811 0.565556 0.531819 0.565556 0.531819 0.582191 0.548926 0.582191 0.548926 0.596599 0.563973 0.596599 0.563973 0.608801 0.576919 0.608801 0.576919 0.618773 0.587734 0.618773 0.587734 0.626452 0.596379 0.626452 0.596379 0.631743 0.602808 0.631743 0.602808 0.634521 0.606972 0.634521 0.606972 0.634637 0.608836 0.634637 0.608836 0.631981 0.608419 0.631981 0.608419 0.626592 0.60585 0.626592 0.60585 0.609757 0.592421 0.609757 0.592421 0.595999 0.581823 0.595999 0.581823 0.584378 0.572765 0.584378 0.572765 0.574714 0.565195 0.574714 0.565195 0.566778 0.559004 0.566778 0.559004 0.560356 0.554061 0.560356 0.554061 0.555256 0.550228 0.555256 0.550228 0.551302 0.54737 0.551302 0.54737 0.548339 0.545353 0.548339 0.545353 0.546217 0.544046 0.546217 0.544046 0.544798 0.543312 0.544798 0.543312 0.543939 0.543002 0.543939 0.543002 0.543473 0.542942 0.543473 0.542942 0.54318 0.542947 0.47107 0.439243 0.492339 0.459897 0.492339 0.459897 0.512811 0.479998 0.512811 0.479998 0.531819 0.499007 0.531819 0.499007 0.548926 0.516482 0.548926 0.516482 0.563973 0.532149 0.563973 0.532149 0.576919 0.545879 0.576919 0.545879 0.587734 0.557611 0.587734 0.557611 0.596379 0.567311 0.596379 0.567311 0.602808 0.574958 0.602808 0.574958 0.606972 0.580548 0.606972 0.580548 0.608836 0.584104 0.608836 0.584104 0.608419 0.585699 0.608419 0.585699 0.60585 0.585478 0.60585 0.585478 0.592421 0.575019 0.592421 0.575019 0.581823 0.567355 0.581823 0.567355 0.572765 0.560801 0.572765 0.560801 0.565195 0.555363 0.565195 0.555363 0.559004 0.550996 0.559004 0.550996 0.554061 0.547622 0.554061 0.547622 0.550228 0.545149 0.550228 0.545149 0.54737 0.543472 0.54737 0.543472 0.545353 0.542479 0.545353 0.542479 0.544046 0.542052 0.544046 0.542052 0.543312 0.542062 0.543312 0.542062 0.543002 0.542361 0.543002 0.542361 0.542942 0.542791 0.542942 0.542791 0.542947 0.543187 0.439243 0.407464 0.459897 0.427793 0.459897 0.427793 0.479998 0.44776 0.479998 0.44776 0.499007 0.466884 0.499007 0.466884 0.516482 0.484749 0.516482 0.484749 0.532149 0.501052 0.532149 0.501052 0.545879 0.515606 0.545879 0.515606 0.557611 0.528313 0.557611 0.528313 0.567311 0.53913 0.567311 0.53913 0.574958 0.548044 0.574958 0.548044 0.580548 0.555074 0.580548 0.555074 0.584104 0.560269 0.584104 0.560269 0.585699 0.56372 0.585699 0.56372 0.585478 0.565574 0.585478 0.565574 0.575019 0.557833 0.575019 0.557833 0.567355 0.552937 0.567355 0.552937 0.560801 0.548818 0.560801 0.548818 0.555363 0.545508 0.555363 0.545508 0.550996 0.542999 0.550996 0.542999 0.547622 0.541251 0.547622 0.541251 0.545149 0.5402 0.545149 0.5402 0.543472 0.539768 0.543472 0.539768 0.542479 0.539864 0.542479 0.539864 0.542052 0.54038 0.542052 0.54038 0.542062 0.541198 0.542062 0.541198 0.542361 0.54218 0.542361 0.54218 0.542791 0.543181 0.542791 0.543181 0.543187 0.544044 0.407464 0.37533 0.427793 0.395591 0.427793 0.395591 0.44776 0.415683 0.44776 0.415683 0.466884 0.435129 0.466884 0.435129 0.484749 0.453521 0.484749 0.453521 0.501052 0.470548 0.501052 0.470548 0.515606 0.485999 0.515606 0.485999 0.528313 0.499751 0.528313 0.499751 0.53913 0.511745 0.53913 0.511745 0.548044 0.52197 0.548044 0.52197 0.555074 0.530451 0.555074 0.530451 0.560269 0.537249 0.560269 0.537249 0.56372 0.54246 0.56372 0.54246 0.565574 0.546221 0.565574 0.546221 0.557833 0.541044 0.557833 0.541044 0.552937 0.538792 0.552937 0.538792 0.548818 0.537044 0.548818 0.537044 0.545508 0.535844 0.545508 0.535844 0.542999 0.535207 0.542999 0.535207 0.541251 0.535117 0.541251 0.535117 0.5402 0.535534 0.5402 0.535534 0.539768 0.536401 0.539768 0.536401 0.539864 0.537642 0.539864 0.537642 0.54038 0.539166 0.54038 0.539166 0.541198 0.540862 0.541198 0.540862 0.54218 0.542604 0.54218 0.542604 0.543181 0.544252 0.543181 0.544252 0.544044 0.545651 0.37533 0.342453 0.395591 0.3629 0.395591 0.3629 0.415683 0.383402 0.415683 0.383402 0.435129 0.403429 0.435129 0.403429 0.453521 0.422559 0.453521 0.422559 0.470548 0.44047 0.470548 0.44047 0.485999 0.45694 0.485999 0.45694 0.499751 0.471832 0.499751 0.471832 0.511745 0.485079 0.511745 0.485079 0.52197 0.496667 0.52197 0.496667 0.530451 0.506623 0.530451 0.506623 0.537249 0.51501 0.537249 0.51501 0.54246 0.521924 0.54246 0.521924 0.546221 0.527491 0.546221 0.527491 0.541044 0.524779 0.541044 0.524779 0.538792 0.525077 0.538792 0.525077 0.537044 0.525642 0.537044 0.525642 0.535844 0.52653 0.535844 0.52653 0.535207 0.527767 0.535207 0.527767 0.535117 0.529356 0.535117 0.529356 0.535534 0.531277 0.535534 0.531277 0.536401 0.533489 0.536401 0.533489 0.537642 0.535932 0.537642 0.535932 0.539166 0.538527 0.539166 0.538527 0.540862 0.541177 0.540862 0.541177 0.542604 0.54376 0.542604 0.54376 0.544252 0.546136 0.544252 0.546136 0.545651 0.548136 0.342453 0.308408 0.3629 0.329328 0.3629 0.329328 0.383402 0.350571 0.383402 0.350571 0.403429 0.3715 0.403429 0.3715 0.422559 0.39164 0.422559 0.39164 0.44047 0.410653 0.44047 0.410653 0.45694 0.428311 0.45694 0.428311 0.471832 0.444473 0.471832 0.444473 0.485079 0.45907 0.485079 0.45907 0.496667 0.472089 0.496667 0.472089 0.506623 0.483557 0.506623 0.483557 0.51501 0.49354 0.51501 0.49354 0.521924 0.50213 0.521924 0.50213 0.527491 0.509446 0.527491 0.509446 0.524779 0.509135 0.524779 0.509135 0.525077 0.511907 0.525077 0.511907 0.525642 0.514736 0.525642 0.514736 0.52653 0.517685 0.52653 0.517685 0.527767 0.520792 0.527767 0.520792 0.529356 0.524075 0.529356 0.524075 0.531277 0.527529 0.531277 0.527529 0.533489 0.531129 0.533489 0.531129 0.535932 0.53483 0.535932 0.53483 0.538527 0.538566 0.538527 0.538566 0.541177 0.54225 0.541177 0.54225 0.54376 0.545767 0.54376 0.545767 0.546136 0.548965 0.546136 0.548965 0.548136 0.551643 0.308408 0.272684 0.329328 0.294438 0.329328 0.294438 0.350571 0.31685 0.350571 0.31685 0.3715 0.339082 0.3715 0.339082 0.39164 0.360573 0.39164 0.360573 0.410653 0.380961 0.410653 0.380961 0.428311 0.400016 0.428311 0.400016 0.444473 0.417609 0.444473 0.417609 0.45907 0.433675 0.45907 0.433675 0.472089 0.448209 0.472089 0.448209 0.483557 0.461243 0.483557 0.461243 0.49354 0.472845 0.49354 0.472845 0.50213 0.483108 0.50213 0.483108 0.509446 0.492144 0.509446 0.492144 0.509135 0.494192 0.509135 0.494192 0.511907 0.499371 0.511907 0.499371 0.514736 0.504417 0.514736 0.504417 0.517685 0.5094 0.517685 0.5094 0.520792 0.514369 0.520792 0.514369 0.524075 0.519355 0.524075 0.519355 0.527529 0.524367 0.527529 0.524367 0.531129 0.529395 0.531129 0.529395 0.53483 0.534411 0.53483 0.534411 0.538566 0.539363 0.538566 0.539363 0.54225 0.544176 0.54225 0.544176 0.545767 0.548739 0.545767 0.548739 0.548965 0.552883 0.548965 0.552883 0.551643 0.556345 0.272684 0.234599 0.294438 0.257702 0.294438 0.257702 0.31685 0.281889 0.31685 0.281889 0.339082 0.305956 0.339082 0.305956 0.360573 0.329219 0.360573 0.329219 0.380961 0.351303 0.380961 0.351303 0.400016 0.372002 0.400016 0.372002 0.417609 0.391208 0.417609 0.391208 0.433675 0.408881 0.433675 0.408881 0.448209 0.425026 0.448209 0.425026 0.461243 0.43969 0.461243 0.43969 0.472845 0.452947 0.472845 0.452947 0.483108 0.464891 0.483108 0.464891 0.492144 0.475637 0.492144 0.475637 0.494192 0.480016 0.494192 0.480016 0.499371 0.487538 0.499371 0.487538 0.504417 0.494755 0.504417 0.494755 0.5094 0.501742 0.5094 0.501742 0.514369 0.50856 0.514369 0.50856 0.519355 0.515252 0.519355 0.515252 0.524367 0.521843 0.524367 0.521843 0.529395 0.528339 0.529395 0.528339 0.534411 0.534727 0.534411 0.534727 0.539363 0.540974 0.539363 0.540974 0.544176 0.547025 0.544176 0.547025 0.548739 0.552786 0.548739 0.552786 0.552883 0.558069 0.552883 0.558069 0.556345 0.562487 0.234599 0.193112 0.257702 0.218429 0.257702 0.218429 0.281889 0.24534 0.281889 0.24534 0.305956 0.271967 0.305956 0.271967 0.329219 0.297512 0.329219 0.297512 0.351303 0.321657 0.351303 0.321657 0.372002 0.344265 0.372002 0.344265 0.391208 0.365282 0.391208 0.365282 0.408881 0.384704 0.408881 0.384704 0.425026 0.402565 0.425026 0.402565 0.43969 0.418928 0.43969 0.418928 0.452947 0.43388 0.452947 0.43388 0.464891 0.447524 0.464891 0.447524 0.475637 0.459978 0.475637 0.459978 0.480016 0.466662 0.480016 0.466662 0.487538 0.476464 0.487538 0.476464 0.494755 0.485799 0.494755 0.485799 0.501742 0.494755 0.501742 0.494755 0.50856 0.503404 0.50856 0.503404 0.515252 0.511802 0.515252 0.511802 0.521843 0.51999 0.521843 0.51999 0.528339 0.527987 0.528339 0.527987 0.534727 0.535801 0.534727 0.535801 0.540974 0.543425 0.540974 0.543425 0.547025 0.550838 0.547025 0.550838 0.552786 0.558 0.552786 0.558 0.558069 0.564757 0.558069 0.564757 0.562487 0.570489 0.193112 0.146346 0.218429 0.175644 0.218429 0.175644 0.24534 0.206937 0.24534 0.206937 0.271967 0.237098 0.271967 0.237098 0.297512 0.265499 0.297512 0.265499 0.321657 0.292083 0.321657 0.292083 0.344265 0.316865 0.344265 0.316865 0.365282 0.339885 0.365282 0.339885 0.384704 0.361199 0.384704 0.361199 0.402565 0.380877 0.402565 0.380877 0.418928 0.399006 0.418928 0.399006 0.43388 0.415693 0.43388 0.415693 0.447524 0.431057 0.447524 0.431057 0.459978 0.445218 0.459978 0.445218 0.466662 0.454177 0.466662 0.454177 0.476464 0.466185 0.476464 0.466185 0.485799 0.477583 0.485799 0.477583 0.494755 0.488465 0.494755 0.488465 0.503404 0.498921 0.503404 0.498921 0.511802 0.509019 0.511802 0.509019 0.51999 0.518814 0.51999 0.518814 0.527987 0.528342 0.527987 0.528342 0.535801 0.53763 0.535801 0.53763 0.543425 0.546703 0.543425 0.546703 0.550838 0.555598 0.550838 0.555598 0.558 0.564378 0.558 0.564378 0.564757 0.573261 0.564757 0.573261 0.570489 0.581326 0.146346 0.0897192 0.175644 0.12809 0.175644 0.12809 0.206937 0.166887 0.206937 0.166887 0.237098 0.201573 0.237098 0.201573 0.265499 0.233379 0.265499 0.233379 0.292083 0.262736 0.292083 0.262736 0.316865 0.289926 0.316865 0.289926 0.339885 0.315122 0.339885 0.315122 0.361199 0.338454 0.361199 0.338454 0.380877 0.360039 0.380877 0.360039 0.399006 0.379996 0.399006 0.379996 0.415693 0.398451 0.415693 0.398451 0.431057 0.415539 0.431057 0.415539 0.445218 0.431423 0.445218 0.431423 0.454177 0.442585 0.454177 0.442585 0.466185 0.456735 0.466185 0.456735 0.477583 0.470123 0.477583 0.470123 0.488465 0.482882 0.488465 0.482882 0.498921 0.495113 0.498921 0.495113 0.509019 0.506899 0.509019 0.506899 0.518814 0.518307 0.518814 0.518307 0.528342 0.529386 0.528342 0.529386 0.53763 0.540181 0.53763 0.540181 0.546703 0.550751 0.546703 0.550751 0.555598 0.5612 0.555598 0.5612 0.564378 0.571782 0.564378 0.571782 0.573261 0.582949 0.573261 0.582949 0.581326 0.6 0.0897192 0 0.12809 0.0779634 0.12809 0.0779634 0.166887 0.12408 0.166887 0.12408 0.201573 0.163565 0.201573 0.163565 0.233379 0.198609 0.233379 0.198609 0.262736 0.230537 0.262736 0.230537 0.289926 0.259941 0.289926 0.259941 0.315122 0.28715 0.315122 0.28715 0.338454 0.312371 0.338454 0.312371 0.360039 0.335761 0.360039 0.335761 0.379996 0.35746 0.379996 0.35746 0.398451 0.377608 0.398451 0.377608 0.415539 0.396351 0.415539 0.396351 0.431423 0.413827 0.431423 0.413827 0.442585 0.427048 0.442585 0.427048 0.456735 0.443124 0.456735 0.443124 0.470123 0.458347 0.470123 0.458347 0.482882 0.472832 0.482882 0.472832 0.495113 0.486697 0.495113 0.486697 0.506899 0.50004 0.506899 0.50004 0.518307 0.512936 0.518307 0.512936 0.529386 0.525444 0.529386 0.525444 0.540181 0.537616 0.540181 0.537616 0.550751 0.549512 0.550751 0.549512 0.5612 0.561241 0.5612 0.561241 0.571782 0.57303 0.571782 0.57303 0.582949 0.585526 0.582949 0.585526 0.6 0.6 0 0 0.0779634 0.0600667 0.0779634 0.0600667 0.12408 0.107013 0.12408 0.107013 0.163565 0.146619 0.163565 0.146619 0.198609 0.181972 0.198609 0.181972 0.230537 0.214242 0.230537 0.214242 0.259941 0.244032 0.259941 0.244032 0.28715 0.271675 0.28715 0.271675 0.312371 0.297378 0.312371 0.297378 0.335761 0.3213 0.335761 0.3213 0.35746 0.343583 0.35746 0.343583 0.377608 0.364368 0.377608 0.364368 0.396351 0.383805 0.396351 0.383805 0.413827 0.402054 0.413827 0.402054 0.427048 0.416561 0.427048 0.416561 0.443124 0.433836 0.443124 0.433836 0.458347 0.450207 0.458347 0.450207 0.472832 0.46582 0.472832 0.46582 0.486697 0.480792 0.486697 0.480792 0.50004 0.495223 0.50004 0.495223 0.512936 0.509187 0.512936 0.509187 0.525444 0.522739 0.525444 0.522739 0.537616 0.535918 0.537616 0.535918 0.549512 0.54877 0.549512 0.54877 0.561241 0.561373 0.561241 0.561373 0.57303 0.573886 0.57303 0.573886 0.585526 0.586628 0.585526 0.586628 0.6 0.6 0 0 0.0600667 0.0508454 0.0600667 0.0508454 0.107013 0.0945998 0.107013 0.0945998 0.146619 0.1332 0.146619 0.1332 0.181972 0.16819 0.181972 0.16819 0.214242 0.200429 0.214242 0.200429 0.244032 0.230374 0.244032 0.230374 0.271675 0.258288 0.271675 0.258288 0.297378 0.284339 0.297378 0.284339 0.3213 0.308665 0.3213 0.308665 0.343583 0.331396 0.343583 0.331396 0.364368 0.352672 0.364368 0.352672 0.383805 0.372644 0.383805 0.372644 0.402054 0.391471 0.402054 0.391471 0.416561 0.40708 0.416561 0.40708 0.433836 0.425278 0.433836 0.425278 0.450207 0.442576 0.450207 0.442576 0.46582 0.45912 0.46582 0.45912 0.480792 0.475034 0.480792 0.475034 0.495223 0.490414 0.495223 0.490414 0.509187 0.505331 0.509187 0.505331 0.522739 0.519828 0.522739 0.519828 0.535918 0.533927 0.535918 0.533927 0.54877 0.547644 0.54877 0.547644 0.561373 0.561011 0.561373 0.561011 0.573886 0.574102 0.573886 0.574102 0.586628 0.58705 0.586628 0.58705 0.6 0.6 0 0 0.0508454 0.0449645 0.0508454 0.0449645 0.0945998 0.0855998 0.0945998 0.0855998 0.1332 0.1227 0.1332 0.1227 0.16819 0.157006 0.16819 0.157006 0.200429 0.188999 0.200429 0.188999 0.230374 0.218951 0.230374 0.218951 0.258288 0.247016 0.258288 0.247016 0.284339 0.273302 0.284339 0.273302 0.308665 0.297908 0.308665 0.297908 0.331396 0.320952 0.331396 0.320952 0.352672 0.342568 0.352672 0.342568 0.372644 0.362907 0.372644 0.362907 0.391471 0.382134 0.391471 0.382134 0.40708 0.398613 0.40708 0.398613 0.425278 0.417468 0.425278 0.417468 0.442576 0.435456 0.442576 0.435456 0.45912 0.452728 0.45912 0.452728 0.475034 0.46941 0.475034 0.46941 0.490414 0.485597 0.490414 0.485597 0.505331 0.501352 0.505331 0.501352 0.519828 0.516705 0.519828 0.516705 0.533927 0.531654 0.533927 0.531654 0.547644 0.546179 0.547644 0.546179 0.561011 0.56026 0.561011 0.56026 0.574102 0.573899 0.574102 0.573899 0.58705 0.587131 0.58705 0.587131 0.6 0.6 0 0 0.0449645 0.0408359 0.0449645 0.0408359 0.0855998 0.0789032 0.0855998 0.0789032 0.1227 0.114561 0.1227 0.114561 0.157006 0.148137 0.157006 0.148137 0.188999 0.179833 0.188999 0.179833 0.218951 0.209736 0.218951 0.209736 0.247016 0.237884 0.247016 0.237884 0.273302 0.264313 0.273302 0.264313 0.297908 0.289088 0.297908 0.289088 0.320952 0.312307 0.320952 0.312307 0.342568 0.334104 0.342568 0.334104 0.362907 0.354635 0.362907 0.354635 0.382134 0.374071 0.382134 0.374071 0.398613 0.391173 0.398613 0.391173 0.417468 0.410404 0.417468 0.410404 0.435456 0.428835 0.435456 0.428835 0.452728 0.446622 0.452728 0.446622 0.46941 0.463891 0.46941 0.463891 0.485597 0.480737 0.485597 0.480737 0.501352 0.497216 0.501352 0.497216 0.516705 0.513344 0.516705 0.513344 0.531654 0.529092 0.531654 0.529092 0.546179 0.544398 0.546179 0.544398 0.56026 0.559189 0.56026 0.559189 0.573899 0.573402 0.573899 0.573402 0.587131 0.587008 0.587131 0.587008 0.6 0.6 0 0 0.0408359 0.0378079 0.0408359 0.0378079 0.0789032 0.0738826 0.0789032 0.0738826 0.114561 0.108376 0.114561 0.108376 0.148137 0.141371 0.148137 0.141371 0.179833 0.17285 0.179833 0.17285 0.209736 0.202732 0.209736 0.202732 0.237884 0.230938 0.237884 0.230938 0.264313 0.257438 0.264313 0.257438 0.289088 0.282266 0.289088 0.282266 0.312307 0.305517 0.312307 0.305517 0.334104 0.327327 0.334104 0.327327 0.354635 0.347861 0.354635 0.347861 0.374071 0.367302 0.374071 0.367302 0.391173 0.384759 0.391173 0.384759 0.410404 0.404072 0.410404 0.404072 0.428835 0.422688 0.428835 0.422688 0.446622 0.440764 0.446622 0.440764 0.463891 0.458429 0.463891 0.458429 0.480737 0.475778 0.480737 0.475778 0.497216 0.492864 0.497216 0.492864 0.513344 0.50969 0.513344 0.50969 0.529092 0.526202 0.529092 0.526202 0.544398 0.542292 0.544398 0.542292 0.559189 0.557825 0.559189 0.557825 0.573402 0.572672 0.573402 0.572672 0.587008 0.586743 0.587008 0.586743 0.6 0.6 0 0 0.0378079 0.0355735 0.0378079 0.0355735 0.0738826 0.0702078 0.0738826 0.0702078 0.108376 0.103925 0.108376 0.103925 0.141371 0.136618 0.141371 0.136618 0.17285 0.168064 0.17285 0.168064 0.202732 0.198012 0.202732 0.198012 0.230938 0.226272 0.230938 0.226272 0.257438 0.252765 0.257438 0.252765 0.282266 0.277519 0.282266 0.277519 0.305517 0.300639 0.305517 0.300639 0.327327 0.322276 0.327327 0.322276 0.347861 0.342609 0.347861 0.342609 0.367302 0.361832 0.367302 0.361832 0.384759 0.379357 0.384759 0.379357 0.404072 0.398443 0.404072 0.398443 0.422688 0.416973 0.422688 0.416973 0.440764 0.435101 0.440764 0.435101 0.458429 0.452957 0.458429 0.452957 0.475778 0.470637 0.475778 0.470637 0.492864 0.488199 0.492864 0.488199 0.50969 0.505643 0.50969 0.505643 0.526202 0.522895 0.526202 0.522895 0.542292 0.539799 0.542292 0.539799 0.557825 0.556144 0.557825 0.556144 0.572672 0.571718 0.572672 0.571718 0.586743 0.586362 0.586743 0.586362 0.6 0.6 0 0 0.0355735 0.0339917 0.0355735 0.0339917 0.0702078 0.0677497 0.0702078 0.0677497 0.103925 0.10118 0.103925 0.10118 0.136618 0.133961 0.136618 0.133961 0.168064 0.16563 0.168064 0.16563 0.198012 0.195745 0.198012 0.195745 0.226272 0.22403 0.226272 0.22403 0.252765 0.250403 0.252765 0.250403 0.277519 0.274921 0.277519 0.274921 0.300639 0.297722 0.300639 0.297722 0.322276 0.31898 0.322276 0.31898 0.342609 0.338889 0.342609 0.338889 0.361832 0.357654 0.361832 0.357654 0.379357 0.374937 0.379357 0.374937 0.398443 0.393478 0.398443 0.393478 0.416973 0.411639 0.416973 0.411639 0.435101 0.429569 0.435101 0.429569 0.452957 0.447394 0.452957 0.447394 0.470637 0.465213 0.470637 0.465213 0.488199 0.483095 0.488199 0.483095 0.505643 0.501052 0.505643 0.501052 0.522895 0.519013 0.522895 0.519013 0.539799 0.536783 0.539799 0.536783 0.556144 0.554058 0.556144 0.554058 0.571718 0.570504 0.5