# vtk DataFile Version 3.0
# grid.vtk
ASCII
DATASET UNSTRUCTURED_GRID
POINTS 256 float
0.0 1.0 0.0
0.06666666666666667 1.0 0.0
0.13333333333333333 1.0 0.0
0.2 1.0 0.0
0.26666666666666666 1.0 0.0
0.3333333333333333 1.0 0.0
0.4 1.0 0.0
0.4666666666666667 1.0 0.0
0.5333333333333333 1.0 0.0
0.6 1.0 0.0
0.6666666666666666 1.0 0.0
0.7333333333333333 1.0 0.0
0.8 1.0 0.0
0.8666666666666667 1.0 0.0
0.9333333333333333 1.0 0.0
1.0 1.0 0.0
0.0 0.9333333333333333 0.0
0.06666666666666667 0.9333333333333333 0.0
0.13333333333333333 0.9333333333333333 0.0
0.2 0.9333333333333333 0.0
0.26666666666666666 0.9333333333333333 0.0
0.3333333333333333 0.9333333333333333 0.0
0.4 0.9333333333333333 0.0
0.4666666666666667 0.9333333333333333 0.0
0.5333333333333333 0.9333333333333333 0.0
0.6 0.9333333333333333 0.0
0.6666666666666666 0.9333333333333333 0.0
0.7333333333333333 0.9333333333333333 0.0
0.8 0.9333333333333333 0.0
0.8666666666666667 0.9333333333333333 0.0
0.9333333333333333 0.9333333333333333 0.0
1.0 0.9333333333333333 0.0
0.0 0.8666666666666667 0.0
0.06666666666666667 0.8666666666666667 0.0
0.13333333333333333 0.8666666666666667 0.0
0.2 0.8666666666666667 0.0
0.26666666666666666 0.8666666666666667 0.0
0.3333333333333333 0.8666666666666667 0.0
0.4 0.8666666666666667 0.0
0.4666666666666667 0.8666666666666667 0.0
0.5333333333333333 0.8666666666666667 0.0
0.6 0.8666666666666667 0.0
0.6666666666666666 0.8666666666666667 0.0
0.7333333333333333 0.8666666666666667 0.0
0.8 0.8666666666666667 0.0
0.8666666666666667 0.8666666666666667 0.0
0.9333333333333333 0.8666666666666667 0.0
1.0 0.8666666666666667 0.0
0.0 0.8 0.0
0.06666666666666667 0.8 0.0
0.13333333333333333 0.8 0.0
0.2 0.8 0.0
0.26666666666666666 0.8 0.0
0.3333333333333333 0.8 0.0
0.4 0.8 0.0
0.4666666666666667 0.8 0.0
0.5333333333333333 0.8 0.0
0.6 0.8 0.0
0.6666666666666666 0.8 0.0
0.7333333333333333 0.8 0.0
0.8 0.8 0.0
0.8666666666666667 0.8 0.0
0.9333333333333333 0.8 0.0
1.0 0.8 0.0
0.0 0.7333333333333333 0.0
0.06666666666666667 0.7333333333333333 0.0
0.13333333333333333 0.7333333333333333 0.0
0.2 0.7333333333333333 0.0
0.26666666666666666 0.7333333333333333 0.0
0.3333333333333333 0.7333333333333333 0.0
0.4 0.7333333333333333 0.0
0.4666666666666667 0.7333333333333333 0.0
0.5333333333333333 0.7333333333333333 0.0
0.6 0.7333333333333333 0.0
0.6666666666666666 0.7333333333333333 0.0
0.7333333333333333 0.7333333333333333 0.0
0.8 0.7333333333333333 0.0
0.8666666666666667 0.7333333333333333 0.0
0.9333333333333333 0.7333333333333333 0.0
1.0 0.7333333333333333 0.0
0.0 0.6666666666666666 0.0
0.06666666666666667 0.6666666666666666 0.0
0.13333333333333333 0.6666666666666666 0.0
0.2 0.6666666666666666 0.0
0.26666666666666666 0.6666666666666666 0.0
0.3333333333333333 0.6666666666666666 0.0
0.4 0.6666666666666666 0.0
0.4666666666666667 0.6666666666666666 0.0
0.5333333333333333 0.6666666666666666 0.0
0.6 0.6666666666666666 0.0
0.6666666666666666 0.6666666666666666 0.0
0.7333333333333333 0.6666666666666666 0.0
0.8 0.6666666666666666 0.0
0.8666666666666667 0.6666666666666666 0.0
0.9333333333333333 0.6666666666666666 0.0
1.0 0.6666666666666666 0.0
0.0 0.6 0.0
0.06666666666666667 0.6 0.0
0.13333333333333333 0.6 0.0
0.2 0.6 0.0
0.26666666666666666 0.6 0.0
0.3333333333333333 0.6 0.0
0.4 0.6 0.0
0.4666666666666667 0.6 0.0
0.5333333333333333 0.6 0.0
0.6 0.6 0.0
0.6666666666666666 0.6 0.0
0.7333333333333333 0.6 0.0
0.8 0.6 0.0
0.8666666666666667 0.6 0.0
0.9333333333333333 0.6 0.0
1.0 0.6 0.0
0.0 0.5333333333333333 0.0
0.06666666666666667 0.5333333333333333 0.0
0.13333333333333333 0.5333333333333333 0.0
0.2 0.5333333333333333 0.0
0.26666666666666666 0.5333333333333333 0.0
0.3333333333333333 0.5333333333333333 0.0
0.4 0.5333333333333333 0.0
0.4666666666666667 0.5333333333333333 0.0
0.5333333333333333 0.5333333333333333 0.0
0.6 0.5333333333333333 0.0
0.6666666666666666 0.5333333333333333 0.0
0.7333333333333333 0.5333333333333333 0.0
0.8 0.5333333333333333 0.0
0.8666666666666667 0.5333333333333333 0.0
0.9333333333333333 0.5333333333333333 0.0
1.0 0.5333333333333333 0.0
0.0 0.4666666666666667 0.0
0.06666666666666667 0.4666666666666667 0.0
0.13333333333333333 0.4666666666666667 0.0
0.2 0.4666666666666667 0.0
0.26666666666666666 0.4666666666666667 0.0
0.3333333333333333 0.4666666666666667 0.0
0.4 0.4666666666666667 0.0
0.4666666666666667 0.4666666666666667 0.0
0.5333333333333333 0.4666666666666667 0.0
0.6 0.4666666666666667 0.0
0.6666666666666666 0.4666666666666667 0.0
0.7333333333333333 0.4666666666666667 0.0
0.8 0.4666666666666667 0.0
0.8666666666666667 0.4666666666666667 0.0
0.9333333333333333 0.4666666666666667 0.0
1.0 0.4666666666666667 0.0
0.0 0.4 0.0
0.06666666666666667 0.4 0.0
0.13333333333333333 0.4 0.0
0.2 0.4 0.0
0.26666666666666666 0.4 0.0
0.3333333333333333 0.4 0.0
0.4 0.4 0.0
0.4666666666666667 0.4 0.0
0.5333333333333333 0.4 0.0
0.6 0.4 0.0
0.6666666666666666 0.4 0.0
0.7333333333333333 0.4 0.0
0.8 0.4 0.0
0.8666666666666667 0.4 0.0
0.9333333333333333 0.4 0.0
1.0 0.4 0.0
0.0 0.3333333333333333 0.0
0.06666666666666667 0.3333333333333333 0.0
0.13333333333333333 0.3333333333333333 0.0
0.2 0.3333333333333333 0.0
0.26666666666666666 0.3333333333333333 0.0
0.3333333333333333 0.3333333333333333 0.0
0.4 0.3333333333333333 0.0
0.4666666666666667 0.3333333333333333 0.0
0.5333333333333333 0.3333333333333333 0.0
0.6 0.3333333333333333 0.0
0.6666666666666666 0.3333333333333333 0.0
0.7333333333333333 0.3333333333333333 0.0
0.8 0.3333333333333333 0.0
0.8666666666666667 0.3333333333333333 0.0
0.9333333333333333 0.3333333333333333 0.0
1.0 0.3333333333333333 0.0
0.0 0.26666666666666666 0.0
0.06666666666666667 0.26666666666666666 0.0
0.13333333333333333 0.26666666666666666 0.0
0.2 0.26666666666666666 0.0
0.26666666666666666 0.26666666666666666 0.0
0.3333333333333333 0.26666666666666666 0.0
0.4 0.26666666666666666 0.0
0.4666666666666667 0.26666666666666666 0.0
0.5333333333333333 0.26666666666666666 0.0
0.6 0.26666666666666666 0.0
0.6666666666666666 0.26666666666666666 0.0
0.7333333333333333 0.26666666666666666 0.0
0.8 0.26666666666666666 0.0
0.8666666666666667 0.26666666666666666 0.0
0.9333333333333333 0.26666666666666666 0.0
1.0 0.26666666666666666 0.0
0.0 0.2 0.0
0.06666666666666667 0.2 0.0
0.13333333333333333 0.2 0.0
0.2 0.2 0.0
0.26666666666666666 0.2 0.0
0.3333333333333333 0.2 0.0
0.4 0.2 0.0
0.4666666666666667 0.2 0.0
0.5333333333333333 0.2 0.0
0.6 0.2 0.0
0.6666666666666666 0.2 0.0
0.7333333333333333 0.2 0.0
0.8 0.2 0.0
0.8666666666666667 0.2 0.0
0.9333333333333333 0.2 0.0
1.0 0.2 0.0
0.0 0.13333333333333333 0.0
0.06666666666666667 0.13333333333333333 0.0
0.13333333333333333 0.13333333333333333 0.0
0.2 0.13333333333333333 0.0
0.26666666666666666 0.13333333333333333 0.0
0.3333333333333333 0.13333333333333333 0.0
0.4 0.13333333333333333 0.0
0.4666666666666667 0.13333333333333333 0.0
0.5333333333333333 0.13333333333333333 0.0
0.6 0.13333333333333333 0.0
0.6666666666666666 0.13333333333333333 0.0
0.7333333333333333 0.13333333333333333 0.0
0.8 0.13333333333333333 0.0
0.8666666666666667 0.13333333333333333 0.0
0.9333333333333333 0.13333333333333333 0.0
1.0 0.13333333333333333 0.0
0.0 0.06666666666666667 0.0
0.06666666666666667 0.06666666666666667 0.0
0.13333333333333333 0.06666666666666667 0.0
0.2 0.06666666666666667 0.0
0.26666666666666666 0.06666666666666667 0.0
0.3333333333333333 0.06666666666666667 0.0
0.4 0.06666666666666667 0.0
0.4666666666666667 0.06666666666666667 0.0
0.5333333333333333 0.06666666666666667 0.0
0.6 0.06666666666666667 0.0
0.6666666666666666 0.06666666666666667 0.0
0.7333333333333333 0.06666666666666667 0.0
0.8 0.06666666666666667 0.0
0.8666666666666667 0.06666666666666667 0.0
0.9333333333333333 0.06666666666666667 0.0
1.0 0.06666666666666667 0.0
0.0 0.0 0.0
0.06666666666666667 0.0 0.0
0.13333333333333333 0.0 0.0
0.2 0.0 0.0
0.26666666666666666 0.0 0.0
0.3333333333333333 0.0 0.0
0.4 0.0 0.0
0.4666666666666667 0.0 0.0
0.5333333333333333 0.0 0.0
0.6 0.0 0.0
0.6666666666666666 0.0 0.0
0.7333333333333333 0.0 0.0
0.8 0.0 0.0
0.8666666666666667 0.0 0.0
0.9333333333333333 0.0 0.0
1.0 0.0 0.0

CELLS 225 1125
4 0 1 17 16
4 1 2 18 17
4 2 3 19 18
4 3 4 20 19
4 4 5 21 20
4 5 6 22 21
4 6 7 23 22
4 7 8 24 23
4 8 9 25 24
4 9 10 26 25
4 10 11 27 26
4 11 12 28 27
4 12 13 29 28
4 13 14 30 29
4 14 15 31 30
4 16 17 33 32
4 17 18 34 33
4 18 19 35 34
4 19 20 36 35
4 20 21 37 36
4 21 22 38 37
4 22 23 39 38
4 23 24 40 39
4 24 25 41 40
4 25 26 42 41
4 26 27 43 42
4 27 28 44 43
4 28 29 45 44
4 29 30 46 45
4 30 31 47 46
4 32 33 49 48
4 33 34 50 49
4 34 35 51 50
4 35 36 52 51
4 36 37 53 52
4 37 38 54 53
4 38 39 55 54
4 39 40 56 55
4 40 41 57 56
4 41 42 58 57
4 42 43 59 58
4 43 44 60 59
4 44 45 61 60
4 45 46 62 61
4 46 47 63 62
4 48 49 65 64
4 49 50 66 65
4 50 51 67 66
4 51 52 68 67
4 52 53 69 68
4 53 54 70 69
4 54 55 71 70
4 55 56 72 71
4 56 57 73 72
4 57 58 74 73
4 58 59 75 74
4 59 60 76 75
4 60 61 77 76
4 61 62 78 77
4 62 63 79 78
4 64 65 81 80
4 65 66 82 81
4 66 67 83 82
4 67 68 84 83
4 68 69 85 84
4 69 70 86 85
4 70 71 87 86
4 71 72 88 87
4 72 73 89 88
4 73 74 90 89
4 74 75 91 90
4 75 76 92 91
4 76 77 93 92
4 77 78 94 93
4 78 79 95 94
4 80 81 97 96
4 81 82 98 97
4 82 83 99 98
4 83 84 100 99
4 84 85 101 100
4 85 86 102 101
4 86 87 103 102
4 87 88 104 103
4 88 89 105 104
4 89 90 106 105
4 90 91 107 106
4 91 92 108 107
4 92 93 109 108
4 93 94 110 109
4 94 95 111 110
4 96 97 113 112
4 97 98 114 113
4 98 99 115 114
4 99 100 116 115
4 100 101 117 116
4 101 102 118 117
4 102 103 119 118
4 103 104 120 119
4 104 105 121 120
4 105 106 122 121
4 106 107 123 122
4 107 108 124 123
4 108 109 125 124
4 109 110 126 125
4 110 111 127 126
4 112 113 129 128
4 113 114 130 129
4 114 115 131 130
4 115 116 132 131
4 116 117 133 132
4 117 118 134 133
4 118 119 135 134
4 119 120 136 135
4 120 121 137 136
4 121 122 138 137
4 122 123 139 138
4 123 124 140 139
4 124 125 141 140
4 125 126 142 141
4 126 127 143 142
4 128 129 145 144
4 129 130 146 145
4 130 131 147 146
4 131 132 148 147
4 132 133 149 148
4 133 134 150 149
4 134 135 151 150
4 135 136 152 151
4 136 137 153 152
4 137 138 154 153
4 138 139 155 154
4 139 140 156 155
4 140 141 157 156
4 141 142 158 157
4 142 143 159 158
4 144 145 161 160
4 145 146 162 161
4 146 147 163 162
4 147 148 164 163
4 148 149 165 164
4 149 150 166 165
4 150 151 167 166
4 151 152 168 167
4 152 153 169 168
4 153 154 170 169
4 154 155 171 170
4 155 156 172 171
4 156 157 173 172
4 157 158 174 173
4 158 159 175 174
4 160 161 177 176
4 161 162 178 177
4 162 163 179 178
4 163 164 180 179
4 164 165 181 180
4 165 166 182 181
4 166 167 183 182
4 167 168 184 183
4 168 169 185 184
4 169 170 186 185
4 170 171 187 186
4 171 172 188 187
4 172 173 189 188
4 173 174 190 189
4 174 175 191 190
4 176 177 193 192
4 177 178 194 193
4 178 179 195 194
4 179 180 196 195
4 180 181 197 196
4 181 182 198 197
4 182 183 199 198
4 183 184 200 199
4 184 185 201 200
4 185 186 202 201
4 186 187 203 202
4 187 188 204 203
4 188 189 205 204
4 189 190 206 205
4 190 191 207 206
4 192 193 209 208
4 193 194 210 209
4 194 195 211 210
4 195 196 212 211
4 196 197 213 212
4 197 198 214 213
4 198 199 215 214
4 199 200 216 215
4 200 201 217 216
4 201 202 218 217
4 202 203 219 218
4 203 204 220 219
4 204 205 221 220
4 205 206 222 221
4 206 207 223 222
4 208 209 225 224
4 209 210 226 225
4 210 211 227 226
4 211 212 228 227
4 212 213 229 228
4 213 214 230 229
4 214 215 231 230
4 215 216 232 231
4 216 217 233 232
4 217 218 234 233
4 218 219 235 234
4 219 220 236 235
4 220 221 237 236
4 221 222 238 237
4 222 223 239 238
4 224 225 241 240
4 225 226 242 241
4 226 227 243 242
4 227 228 244 243
4 228 229 245 244
4 229 230 246 245
4 230 231 247 246
4 231 232 248 247
4 232 233 249 248
4 233 234 250 249
4 234 235 251 250
4 235 236 252 251
4 236 237 253 252
4 237 238 254 253
4 238 239 255 254

CELL_TYPES 225
9 9 9 9 9 9 9 9 9 9 9 9 9 9 9 9 9 9 9 9 9 9 9 9 9 9 9 9 9 9 9 9 9 9 9 9 9 9 9 9 9 9 9 9 9 9 9 9 9 9 9 9 9 9 9 9 9 9 9 9 9 9 9 9 9 9 9 9 9 9 9 9 9 9 9 9 9 9 9 9 9 9 9 9 9 9 9 9 9 9 9 9 9 9 9 9 9 9 9 9 9 9 9 9 9 9 9 9 9 9 9 9 9 9 9 9 9 9 9 9 9 9 9 9 9 9 9 9 9 9 9 9 9 9 9 9 9 9 9 9 9 9 9 9 9 9 9 9 9 9 9 9 9 9 9 9 9 9 9 9 9 9 9 9 9 9 9 9 9 9 9 9 9 9 9 9 9 9 9 9 9 9 9 9 9 9 9 9 9 9 9 9 9 9 9 9 9 9 9 9 9 9 9 9 9 9 9 9 9 9 9 9 9 9 9 9 9 9 9 9 9 9 9 9 9 

POINT_DATA 256
VECTORS NN float
0.0 0.0 0.0
0.04947257041931152 -0.05670630931854248 0.0
0.09709346294403076 -0.07507914304733276 0.0
0.14667320251464844 -0.08373981714248657 0.0
0.20156121253967285 -0.0793924331665039 0.0
0.25412774085998535 -0.07122784852981567 0.0
0.318589448928833 -0.057813823223114014 0.0
0.3876652717590332 -0.04215031862258911 0.0
0.4637444019317627 -0.026543498039245605 0.0
0.5351078510284424 -0.004036545753479004 0.0
0.6006474494934082 0.0166780948638916 0.0
0.6713118553161621 0.03755378723144531 0.0
0.7453687191009521 0.058750152587890625 0.0
0.8217649459838867 0.08048975467681885 0.0
0.9039304256439209 0.1029970645904541 0.0
1.0 0.12360358238220215 0.0
0.0 0.0 0.0
0.04099893569946289 -0.03736519813537598 0.0
0.09097707271575928 -0.05767554044723511 0.0
0.14499056339263916 -0.06373125314712524 0.0
0.2043604850769043 -0.058903276920318604 0.0
0.265842080116272 -0.04952716827392578 0.0
0.33015990257263184 -0.033496081829071045 0.0
0.3952186107635498 -0.01659172773361206 0.0
0.46299028396606445 -0.0004347562789916992 0.0
0.536034107208252 0.02140176296234131 0.0
0.603419303894043 0.04161536693572998 0.0
0.6750493049621582 0.0626760721206665 0.0
0.7488272190093994 0.08503913879394531 0.0
0.8256886005401611 0.10777044296264648 0.0
0.9073143005371094 0.13032567501068115 0.0
1.0 0.15343046188354492 0.0
0.0 0.0 0.0
0.03881549835205078 -0.02421283721923828 0.0
0.0890970230102539 -0.039059460163116455 0.0
0.1492300033569336 -0.042465150356292725 0.0
0.20990371704101562 -0.0366937518119812 0.0
0.27028679847717285 -0.028393864631652832 0.0
0.33486807346343994 -0.010119259357452393 0.0
0.40036606788635254 0.0063745975494384766 0.0
0.467940092086792 0.0250929594039917 0.0
0.537767767906189 0.04700779914855957 0.0
0.6078696250915527 0.06709659099578857 0.0
0.6803603172302246 0.08814656734466553 0.0
0.754324197769165 0.11137747764587402 0.0
0.8297932147979736 0.13372540473937988 0.0
0.9079635143280029 0.15725922584533691 0.0
1.0 0.181695818901062 0.0
0.0 0.0 0.0
0.038399457931518555 -0.01383894681930542 0.0
0.08789277076721191 -0.023439526557922363 0.0
0.14746356010437012 -0.024758994579315186 0.0
0.21051645278930664 -0.016417622566223145 0.0
0.27209270000457764 -0.005269527435302734 0.0
0.33533215522766113 0.011732697486877441 0.0
0.4015686511993408 0.02908802032470703 0.0
0.4741398096084595 0.05092954635620117 0.0
0.5439935922622681 0.07283639907836914 0.0
0.6131397485733032 0.0925220251083374 0.0
0.6857025623321533 0.11475825309753418 0.0
0.7591202259063721 0.13802111148834229 0.0
0.8338978290557861 0.16096746921539307 0.0
0.9132301807403564 0.18469929695129395 0.0
1.0 0.20903146266937256 0.0
0.0 0.0 0.0
0.04157114028930664 -0.005919694900512695 0.0
0.0893486738204956 -0.008990764617919922 0.0
0.14773797988891602 -0.008199691772460938 0.0
0.20716965198516846 0.004198670387268066 0.0
0.27002692222595215 0.015334844589233398 0.0
0.33814120292663574 0.03426921367645264 0.0
0.40713047981262207 0.054178476333618164 0.0
0.4768209457397461 0.0759209394454956 0.0
0.5457339286804199 0.09691011905670166 0.0
0.617316484451294 0.11810970306396484 0.0
0.6894824504852295 0.14149785041809082 0.0
0.7638683319091797 0.16505229473114014 0.0
0.8399207592010498 0.18896138668060303 0.0
0.9201080799102783 0.21322166919708252 0.0
1.0 0.23602533340454102 0.0
0.0 0.0 0.0
0.041829824447631836 0.0020208358764648438 0.0
0.08820700645446777 0.003524303436279297 0.0
0.14732730388641357 0.01016092300415039 0.0
0.20621788501739502 0.022405385971069336 0.0
0.2708628177642822 0.037883758544921875 0.0
0.3390970230102539 0.05790209770202637 0.0
0.4093228578567505 0.0796205997467041 0.0
0.478330135345459 0.10026419162750244 0.0
0.5481021404266357 0.12142050266265869 0.0
0.6198267936706543 0.14466452598571777 0.0
0.6930174827575684 0.16797387599945068 0.0
0.7681756019592285 0.19275283813476562 0.0
0.844691276550293 0.21605587005615234 0.0
0.9224588871002197 0.239782452583313 0.0
1.0 0.26309752464294434 0.0
0.0 0.0 0.0
0.04168701171875 0.008483052253723145 0.0
0.08945107460021973 0.015463113784790039 0.0
0.14685869216918945 0.026262760162353516 0.0
0.208998441696167 0.042848825454711914 0.0
0.2747516632080078 0.06115269660949707 0.0
0.3425091505050659 0.08169233798980713 0.0
0.41181111335754395 0.10300803184509277 0.0
0.4821803569793701 0.12632250785827637 0.0
0.5536710023880005 0.1487267017364502 0.0
0.623650312423706 0.17176902294158936 0.0
0.6966707706451416 0.1949300765991211 0.0
0.7705955505371094 0.21940433979034424 0.0
0.8451104164123535 0.24242687225341797 0.0
0.9217643737792969 0.2663252353668213 0.0
1.0 0.28953278064727783 0.0
0.0 0.0 0.0
0.04076361656188965 0.014137029647827148 0.0
0.08928847312927246 0.027576088905334473 0.0
0.14785706996917725 0.04384660720825195 0.0
0.2101045846939087 0.06377041339874268 0.0
0.2772986888885498 0.08414268493652344 0.0
0.346358060836792 0.10545742511749268 0.0
0.4154388904571533 0.12774336338043213 0.0
0.48697376251220703 0.1515190601348877 0.0
0.5570557117462158 0.17449235916137695 0.0
0.6260219812393188 0.19710659980773926 0.0
0.6973791122436523 0.2207181453704834 0.0
0.771092414855957 0.24505400657653809 0.0
0.8433644771575928 0.267788290977478 0.0
0.9203386306762695 0.2918822765350342 0.0
1.0 0.3146374225616455 0.0
0.0 0.0 0.0
0.043160438537597656 0.021117687225341797 0.0
0.091522216796875 0.04068613052368164 0.0
0.15011167526245117 0.06190991401672363 0.0
0.2137085199356079 0.0849614143371582 0.0
0.28086042404174805 0.10704827308654785 0.0
0.3493705987930298 0.13003778457641602 0.0
0.4187774658203125 0.15276575088500977 0.0
0.4889037609100342 0.17620229721069336 0.0
0.558096170425415 0.19978022575378418 0.0
0.6271457672119141 0.2228151559829712 0.0
0.6984512805938721 0.24681472778320312 0.0
0.7703754901885986 0.27084624767303467 0.0
0.8441159725189209 0.2937502861022949 0.0
0.9194750785827637 0.31713318824768066 0.0
1.0 0.3398069143295288 0.0
0.0 0.0 0.0
0.04323625564575195 0.028175830841064453 0.0
0.09264421463012695 0.054047584533691406 0.0
0.15177154541015625 0.08036923408508301 0.0
0.21625280380249023 0.10649502277374268 0.0
0.2837028503417969 0.1314079761505127 0.0
0.3511584997177124 0.15451645851135254 0.0
0.419980525970459 0.17729902267456055 0.0
0.4897186756134033 0.20232629776000977 0.0
0.5595598220825195 0.22617828845977783 0.0
0.628772497177124 0.2498152256011963 0.0
0.6992647647857666 0.2733902931213379 0.0
0.7713408470153809 0.2969362735748291 0.0
0.8441226482391357 0.3196830749511719 0.0
0.9190678596496582 0.34267234802246094 0.0
1.0 0.365908145904541 0.0
0.0 0.0 0.0
0.042992234230041504 0.03623068332672119 0.0
0.09248924255371094 0.06721508502960205 0.0
0.15212059020996094 0.09818434715270996 0.0
0.21715378761291504 0.12790703773498535 0.0
0.2842559814453125 0.1545048952102661 0.0
0.3517134189605713 0.17906808853149414 0.0
0.4211007356643677 0.20256710052490234 0.0
0.49126100540161133 0.2279583215713501 0.0
0.5597245693206787 0.2514958381652832 0.0
0.6285161972045898 0.2757530212402344 0.0
0.6974618434906006 0.2992873191833496 0.0
0.7696888446807861 0.3223375082015991 0.0
0.8430333137512207 0.3460218906402588 0.0
0.9172494411468506 0.3685481548309326 0.0
1.0 0.3916478157043457 0.0
0.0 0.0 0.0
0.04256868362426758 0.044914960861206055 0.0
0.09294724464416504 0.081321120262146 0.0
0.15371394157409668 0.1177818775177002 0.0
0.2196580171585083 0.1497788429260254 0.0
0.28657472133636475 0.1772902011871338 0.0
0.35361385345458984 0.20328044891357422 0.0
0.42437779903411865 0.2282252311706543 0.0
0.4941849708557129 0.25357866287231445 0.0
0.5603595972061157 0.2765650749206543 0.0
0.6288003921508789 0.30089282989501953 0.0
0.6976873874664307 0.325636625289917 0.0
0.7688407897949219 0.34715449810028076 0.0
0.8416926860809326 0.3711874485015869 0.0
0.9139487743377686 0.3945732116699219 0.0
1.0 0.4171018600463867 0.0
0.0 0.0 0.0
0.04160499572753906 0.053377628326416016 0.0
0.09417212009429932 0.09769189357757568 0.0
0.15664279460906982 0.13759303092956543 0.0
0.22360801696777344 0.17168974876403809 0.0
0.2899143695831299 0.20006442070007324 0.0
0.35886359214782715 0.22642815113067627 0.0
0.42909932136535645 0.2513751983642578 0.0
0.49742889404296875 0.2777719497680664 0.0
0.5654842853546143 0.3013240098953247 0.0
0.6362292766571045 0.3265022039413452 0.0
0.7060327529907227 0.3517467975616455 0.0
0.775362491607666 0.37201881408691406 0.0
0.8456025123596191 0.39611005783081055 0.0
0.9171128273010254 0.42078709602355957 0.0
1.0 0.4432147741317749 0.0
0.0 0.0 0.0
0.04227781295776367 0.06500554084777832 0.0
0.09742605686187744 0.11667919158935547 0.0
0.16076922416687012 0.15924274921417236 0.0
0.22895121574401855 0.19430005550384521 0.0
0.2951894998550415 0.2235875129699707 0.0
0.36472296714782715 0.250476598739624 0.0
0.43408501148223877 0.27485477924346924 0.0
0.504275918006897 0.3022540807723999 0.0
0.5748203992843628 0.3268594741821289 0.0
0.645378828048706 0.3514188528060913 0.0
0.7141966819763184 0.3758983612060547 0.0
0.7825651168823242 0.39727115631103516 0.0
0.8513274192810059 0.42150700092315674 0.0
0.9208130836486816 0.44681310653686523 0.0
1.0 0.4705432653427124 0.0
0.0 0.0 0.0
0.04903995990753174 0.08180892467498779 0.0
0.10821223258972168 0.13927781581878662 0.0
0.17200875282287598 0.18366360664367676 0.0
0.24033451080322266 0.21859097480773926 0.0
0.30718350410461426 0.2482767105102539 0.0
0.3756580352783203 0.2754554748535156 0.0
0.4459493160247803 0.3003631830215454 0.0
0.5173923969268799 0.3285398483276367 0.0
0.5866179466247559 0.3532848358154297 0.0
0.6561062335968018 0.3770458698272705 0.0
0.7256836891174316 0.4011096954345703 0.0
0.7926528453826904 0.42368268966674805 0.0
0.8606359958648682 0.4479854106903076 0.0
0.9272181987762451 0.4730706214904785 0.0
1.0 0.4984779357910156 0.0
0.0 0.0 0.0
0.06186342239379883 0.11044430732727051 0.0
0.12414681911468506 0.16559362411499023 0.0
0.18654155731201172 0.2092573642730713 0.0
0.2530653476715088 0.2443699836730957 0.0
0.3205685615539551 0.275485634803772 0.0
0.38762199878692627 0.3034156560897827 0.0
0.4569668769836426 0.3289302587509155 0.0
0.5273276567459106 0.3551623821258545 0.0
0.5956635475158691 0.3789656162261963 0.0
0.6647486686706543 0.40254950523376465 0.0
0.7340333461761475 0.4266996383666992 0.0
0.8023703098297119 0.4501146078109741 0.0
0.8712418079376221 0.47500157356262207 0.0
0.9372615814208984 0.49958109855651855 0.0
1.0 0.5247209072113037 0.0

VECTORS BNN float
0.0 0.0 0.0
0.04577279090881348 -0.0532262921333313 0.0
0.09212672710418701 -0.07061493396759033 0.0
0.14084148406982422 -0.07698708772659302 0.0
0.19157981872558594 -0.07526540756225586 0.0
0.24589157104492188 -0.06839269399642944 0.0
0.30346691608428955 -0.057748496532440186 0.0
0.3665539026260376 -0.04446202516555786 0.0
0.43546414375305176 -0.029137730598449707 0.0
0.508833646774292 -0.012228190898895264 0.0
0.5836814641952515 0.006501436233520508 0.0
0.6580958366394043 0.025887489318847656 0.0
0.7318649291992188 0.044647216796875 0.0
0.8081225156784058 0.06334292888641357 0.0
0.8887101411819458 0.08184504508972168 0.0
1.0 0.09985685348510742 0.0
0.0 0.0 0.0
0.03941774368286133 -0.03483438491821289 0.0
0.08854877948760986 -0.05327165126800537 0.0
0.13965821266174316 -0.05842721462249756 0.0
0.19316482543945312 -0.055649638175964355 0.0
0.24872684478759766 -0.04745858907699585 0.0
0.3073399066925049 -0.03569585084915161 0.0
0.37104249000549316 -0.020741403102874756 0.0
0.43971240520477295 -0.00420379638671875 0.0
0.5118629932403564 0.013267874717712402 0.0
0.5864051580429077 0.03227198123931885 0.0
0.6619418859481812 0.05152010917663574 0.0
0.7369707822799683 0.07100796699523926 0.0
0.8137584924697876 0.09085941314697266 0.0
0.8931852579116821 0.11010944843292236 0.0
1.0 0.12955033779144287 0.0
0.0 0.0 0.0
0.04001808166503906 -0.022856593132019043 0.0
0.08713293075561523 -0.036927998065948486 0.0
0.13952624797821045 -0.040006816387176514 0.0
0.1942896842956543 -0.0358043909072876 0.0
0.2514857053756714 -0.026305019855499268 0.0
0.3115718364715576 -0.01316976547241211 0.0
0.376318097114563 0.0031739473342895508 0.0
0.4444401264190674 0.020706653594970703 0.0
0.5158501863479614 0.039017677307128906 0.0
0.5896714925765991 0.05821788311004639 0.0
0.6646319627761841 0.07751739025115967 0.0
0.7403079271316528 0.09737980365753174 0.0
0.8168938159942627 0.11794710159301758 0.0
0.8955730199813843 0.13782835006713867 0.0
1.0 0.15846729278564453 0.0
0.0 0.0 0.0
0.040369391441345215 -0.013827383518218994 0.0
0.08700680732727051 -0.022463560104370117 0.0
0.13934588432312012 -0.022705078125 0.0
0.1950455904006958 -0.016567468643188477 0.0
0.25356364250183105 -0.005343496799468994 0.0
0.3147566318511963 0.009076237678527832 0.0
0.3798553943634033 0.026644349098205566 0.0
0.44863927364349365 0.04518628120422363 0.0
0.5199432373046875 0.06430172920227051 0.0
0.5929248332977295 0.0837630033493042 0.0
0.6676993370056152 0.10376811027526855 0.0
0.7433468103408813 0.12404787540435791 0.0
0.819595456123352 0.14470672607421875 0.0
0.8979284763336182 0.16534769535064697 0.0
1.0 0.18632221221923828 0.0
0.0 0.0 0.0
0.041260480880737305 -0.006211400032043457 0.0
0.08788394927978516 -0.009380638599395752 0.0
0.1399766206741333 -0.006619870662689209 0.0
0.19644951820373535 0.0023649930953979492 0.0
0.2558739185333252 0.01535332202911377 0.0
0.31814897060394287 0.03119480609893799 0.0
0.38444066047668457 0.05005764961242676 0.0
0.45323681831359863 0.0693889856338501 0.0
0.5246422290802002 0.08926308155059814 0.0
0.597458004951477 0.1094590425491333 0.0
0.6715147495269775 0.1299760341644287 0.0
0.746421217918396 0.15059781074523926 0.0
0.8222030401229858 0.17157328128814697 0.0
0.8997714519500732 0.19230806827545166 0.0
1.0 0.21320724487304688 0.0
0.0 0.0 0.0
0.04167211055755615 0.00052642822265625 0.0
0.08811295032501221 0.002411365509033203 0.0
0.14021015167236328 0.009152054786682129 0.0
0.1975395679473877 0.02094292640686035 0.0
0.2577322721481323 0.03606617450714111 0.0
0.3204984664916992 0.05342245101928711 0.0
0.3873101472854614 0.07317459583282471 0.0
0.45670652389526367 0.09330379962921143 0.0
0.5284878015518188 0.11414158344268799 0.0
0.601067304611206 0.13478350639343262 0.0
0.6743216514587402 0.1558934450149536 0.0
0.7483737468719482 0.17673063278198242 0.0
0.823563814163208 0.19789791107177734 0.0
0.9002161026000977 0.21875441074371338 0.0
1.0 0.23976993560791016 0.0
0.0 0.0 0.0
0.04201507568359375 0.006209611892700195 0.0
0.08845674991607666 0.013567686080932617 0.0
0.1411064863204956 0.024790287017822266 0.0
0.19864106178283691 0.039522647857666016 0.0
0.25945842266082764 0.0566939115524292 0.0
0.32316577434539795 0.0754321813583374 0.0
0.39109277725219727 0.09621000289916992 0.0
0.46145904064178467 0.11724162101745605 0.0
0.5335202217102051 0.13886737823486328 0.0
0.6055828332901001 0.16014301776885986 0.0
0.6782732009887695 0.18163800239562988 0.0
0.7512004375457764 0.20292603969573975 0.0
0.825106143951416 0.22398829460144043 0.0
0.9009191989898682 0.24513638019561768 0.0
1.0 0.2666207551956177 0.0
0.0 0.0 0.0
0.04255795478820801 0.011768817901611328 0.0
0.09009647369384766 0.02472245693206787 0.0
0.1431879997253418 0.04029691219329834 0.0
0.2009643316268921 0.05786406993865967 0.0
0.2622181177139282 0.07701420783996582 0.0
0.3267827033996582 0.0971529483795166 0.0
0.3955214023590088 0.11879491806030273 0.0
0.4663667678833008 0.14065885543823242 0.0
0.538339376449585 0.16287875175476074 0.0
0.6100422143936157 0.1849203109741211 0.0
0.6817647218704224 0.20686280727386475 0.0
0.7539509534835815 0.22861313819885254 0.0
0.827194094657898 0.25014781951904297 0.0
0.9023256301879883 0.27196335792541504 0.0
1.0 0.2937735319137573 0.0
0.0 0.0 0.0
0.0436173677444458 0.01813352108001709 0.0
0.09150326251983643 0.03629148006439209 0.0
0.1451261043548584 0.05616402626037598 0.0
0.20329761505126953 0.07657504081726074 0.0
0.26542019844055176 0.09781038761138916 0.0
0.33077943325042725 0.11963725090026855 0.0
0.40019237995147705 0.14174818992614746 0.0
0.4714024066925049 0.1641758680343628 0.0
0.5433316230773926 0.18684399127960205 0.0
0.6145895719528198 0.2094125747680664 0.0
0.6855108737945557 0.23182034492492676 0.0
0.7570555210113525 0.25413739681243896 0.0
0.8300889730453491 0.2765183448791504 0.0
0.9040369987487793 0.298803448677063 0.0
1.0 0.32077670097351074 0.0
0.0 0.0 0.0
0.04423093795776367 0.024691343307495117 0.0
0.09281086921691895 0.04816722869873047 0.0
0.1471412181854248 0.07208859920501709 0.0
0.20648157596588135 0.09580600261688232 0.0
0.2691009044647217 0.11904537677764893 0.0
0.33475983142852783 0.142553448677063 0.0
0.40396642684936523 0.16511857509613037 0.0
0.4751967191696167 0.18779873847961426 0.0
0.5472244024276733 0.21090960502624512 0.0
0.6184974908828735 0.23380374908447266 0.0
0.6891015768051147 0.2565423250198364 0.0
0.7607400417327881 0.27941370010375977 0.0
0.8334017992019653 0.3024364709854126 0.0
0.9063984155654907 0.3253365755081177 0.0
1.0 0.3472079038619995 0.0
0.0 0.0 0.0
0.044820308685302734 0.03152048587799072 0.0
0.09423363208770752 0.06069791316986084 0.0
0.15005731582641602 0.08860445022583008 0.0
0.2100592851638794 0.11530888080596924 0.0
0.27347004413604736 0.1408756971359253 0.0
0.3394988775253296 0.16562294960021973 0.0
0.4079493284225464 0.18858134746551514 0.0
0.4786996841430664 0.21167027950286865 0.0
0.5504846572875977 0.23510754108428955 0.0
0.6215232610702515 0.2581210136413574 0.0
0.6922630071640015 0.28098559379577637 0.0
0.7634921073913574 0.3042973279953003 0.0
0.8353335857391357 0.3275637626647949 0.0
0.906928539276123 0.3507789373397827 0.0
1.0 0.37273168563842773 0.0
0.0 0.0 0.0
0.0450587272644043 0.038935184478759766 0.0
0.09569573402404785 0.0743260383605957 0.0
0.15298151969909668 0.10618007183074951 0.0
0.2147754430770874 0.13581645488739014 0.0
0.27865374088287354 0.16324591636657715 0.0