# vtk DataFile Version 3.0
# grid.vtk
ASCII
DATASET UNSTRUCTURED_GRID
POINTS 1024 float
0.0 1.0 0.0
0.03225806451612903 1.0 0.0
0.06451612903225806 1.0 0.0
0.0967741935483871 1.0 0.0
0.12903225806451613 1.0 0.0
0.16129032258064516 1.0 0.0
0.1935483870967742 1.0 0.0
0.22580645161290322 1.0 0.0
0.25806451612903225 1.0 0.0
0.2903225806451613 1.0 0.0
0.3225806451612903 1.0 0.0
0.3548387096774194 1.0 0.0
0.3870967741935484 1.0 0.0
0.41935483870967744 1.0 0.0
0.45161290322580644 1.0 0.0
0.4838709677419355 1.0 0.0
0.5161290322580645 1.0 0.0
0.5483870967741935 1.0 0.0
0.5806451612903226 1.0 0.0
0.6129032258064516 1.0 0.0
0.6451612903225806 1.0 0.0
0.6774193548387096 1.0 0.0
0.7096774193548387 1.0 0.0
0.7419354838709677 1.0 0.0
0.7741935483870968 1.0 0.0
0.8064516129032258 1.0 0.0
0.8387096774193549 1.0 0.0
0.8709677419354839 1.0 0.0
0.9032258064516129 1.0 0.0
0.9354838709677419 1.0 0.0
0.967741935483871 1.0 0.0
1.0 1.0 0.0
0.0 0.967741935483871 0.0
0.03225806451612903 0.967741935483871 0.0
0.06451612903225806 0.967741935483871 0.0
0.0967741935483871 0.967741935483871 0.0
0.12903225806451613 0.967741935483871 0.0
0.16129032258064516 0.967741935483871 0.0
0.1935483870967742 0.967741935483871 0.0
0.22580645161290322 0.967741935483871 0.0
0.25806451612903225 0.967741935483871 0.0
0.2903225806451613 0.967741935483871 0.0
0.3225806451612903 0.967741935483871 0.0
0.3548387096774194 0.967741935483871 0.0
0.3870967741935484 0.967741935483871 0.0
0.41935483870967744 0.967741935483871 0.0
0.45161290322580644 0.967741935483871 0.0
0.4838709677419355 0.967741935483871 0.0
0.5161290322580645 0.967741935483871 0.0
0.5483870967741935 0.967741935483871 0.0
0.5806451612903226 0.967741935483871 0.0
0.6129032258064516 0.967741935483871 0.0
0.6451612903225806 0.967741935483871 0.0
0.6774193548387096 0.967741935483871 0.0
0.7096774193548387 0.967741935483871 0.0
0.7419354838709677 0.967741935483871 0.0
0.7741935483870968 0.967741935483871 0.0
0.8064516129032258 0.967741935483871 0.0
0.8387096774193549 0.967741935483871 0.0
0.8709677419354839 0.967741935483871 0.0
0.9032258064516129 0.967741935483871 0.0
0.9354838709677419 0.967741935483871 0.0
0.967741935483871 0.967741935483871 0.0
1.0 0.967741935483871 0.0
0.0 0.9354838709677419 0.0
0.03225806451612903 0.9354838709677419 0.0
0.06451612903225806 0.9354838709677419 0.0
0.0967741935483871 0.9354838709677419 0.0
0.12903225806451613 0.9354838709677419 0.0
0.16129032258064516 0.9354838709677419 0.0
0.1935483870967742 0.9354838709677419 0.0
0.22580645161290322 0.9354838709677419 0.0
0.25806451612903225 0.9354838709677419 0.0
0.2903225806451613 0.9354838709677419 0.0
0.3225806451612903 0.9354838709677419 0.0
0.3548387096774194 0.9354838709677419 0.0
0.3870967741935484 0.9354838709677419 0.0
0.41935483870967744 0.9354838709677419 0.0
0.45161290322580644 0.9354838709677419 0.0
0.4838709677419355 0.9354838709677419 0.0
0.5161290322580645 0.9354838709677419 0.0
0.5483870967741935 0.9354838709677419 0.0
0.5806451612903226 0.9354838709677419 0.0
0.6129032258064516 0.9354838709677419 0.0
0.6451612903225806 0.9354838709677419 0.0
0.6774193548387096 0.9354838709677419 0.0
0.7096774193548387 0.9354838709677419 0.0
0.7419354838709677 0.9354838709677419 0.0
0.7741935483870968 0.9354838709677419 0.0
0.8064516129032258 0.9354838709677419 0.0
0.8387096774193549 0.9354838709677419 0.0
0.8709677419354839 0.9354838709677419 0.0
0.9032258064516129 0.9354838709677419 0.0
0.9354838709677419 0.9354838709677419 0.0
0.967741935483871 0.9354838709677419 0.0
1.0 0.9354838709677419 0.0
0.0 0.9032258064516129 0.0
0.03225806451612903 0.9032258064516129 0.0
0.06451612903225806 0.9032258064516129 0.0
0.0967741935483871 0.9032258064516129 0.0
0.12903225806451613 0.9032258064516129 0.0
0.16129032258064516 0.9032258064516129 0.0
0.1935483870967742 0.9032258064516129 0.0
0.22580645161290322 0.9032258064516129 0.0
0.25806451612903225 0.9032258064516129 0.0
0.2903225806451613 0.9032258064516129 0.0
0.3225806451612903 0.9032258064516129 0.0
0.3548387096774194 0.9032258064516129 0.0
0.3870967741935484 0.9032258064516129 0.0
0.41935483870967744 0.9032258064516129 0.0
0.45161290322580644 0.9032258064516129 0.0
0.4838709677419355 0.9032258064516129 0.0
0.5161290322580645 0.9032258064516129 0.0
0.5483870967741935 0.9032258064516129 0.0
0.5806451612903226 0.9032258064516129 0.0
0.6129032258064516 0.9032258064516129 0.0
0.6451612903225806 0.9032258064516129 0.0
0.6774193548387096 0.9032258064516129 0.0
0.7096774193548387 0.9032258064516129 0.0
0.7419354838709677 0.9032258064516129 0.0
0.7741935483870968 0.9032258064516129 0.0
0.8064516129032258 0.9032258064516129 0.0
0.8387096774193549 0.9032258064516129 0.0
0.8709677419354839 0.9032258064516129 0.0
0.9032258064516129 0.9032258064516129 0.0
0.9354838709677419 0.9032258064516129 0.0
0.967741935483871 0.9032258064516129 0.0
1.0 0.9032258064516129 0.0
0.0 0.8709677419354839 0.0
0.03225806451612903 0.8709677419354839 0.0
0.06451612903225806 0.8709677419354839 0.0
0.0967741935483871 0.8709677419354839 0.0
0.12903225806451613 0.8709677419354839 0.0
0.16129032258064516 0.8709677419354839 0.0
0.1935483870967742 0.8709677419354839 0.0
0.22580645161290322 0.8709677419354839 0.0
0.25806451612903225 0.8709677419354839 0.0
0.2903225806451613 0.8709677419354839 0.0
0.3225806451612903 0.8709677419354839 0.0
0.3548387096774194 0.8709677419354839 0.0
0.3870967741935484 0.8709677419354839 0.0
0.41935483870967744 0.8709677419354839 0.0
0.45161290322580644 0.8709677419354839 0.0
0.4838709677419355 0.8709677419354839 0.0
0.5161290322580645 0.8709677419354839 0.0
0.5483870967741935 0.8709677419354839 0.0
0.5806451612903226 0.8709677419354839 0.0
0.6129032258064516 0.8709677419354839 0.0
0.6451612903225806 0.8709677419354839 0.0
0.6774193548387096 0.8709677419354839 0.0
0.7096774193548387 0.8709677419354839 0.0
0.7419354838709677 0.8709677419354839 0.0
0.7741935483870968 0.8709677419354839 0.0
0.8064516129032258 0.8709677419354839 0.0
0.8387096774193549 0.8709677419354839 0.0
0.8709677419354839 0.8709677419354839 0.0
0.9032258064516129 0.8709677419354839 0.0
0.9354838709677419 0.8709677419354839 0.0
0.967741935483871 0.8709677419354839 0.0
1.0 0.8709677419354839 0.0
0.0 0.8387096774193549 0.0
0.03225806451612903 0.8387096774193549 0.0
0.06451612903225806 0.8387096774193549 0.0
0.0967741935483871 0.8387096774193549 0.0
0.12903225806451613 0.8387096774193549 0.0
0.16129032258064516 0.8387096774193549 0.0
0.1935483870967742 0.8387096774193549 0.0
0.22580645161290322 0.8387096774193549 0.0
0.25806451612903225 0.8387096774193549 0.0
0.2903225806451613 0.8387096774193549 0.0
0.3225806451612903 0.8387096774193549 0.0
0.3548387096774194 0.8387096774193549 0.0
0.3870967741935484 0.8387096774193549 0.0
0.41935483870967744 0.8387096774193549 0.0
0.45161290322580644 0.8387096774193549 0.0
0.4838709677419355 0.8387096774193549 0.0
0.5161290322580645 0.8387096774193549 0.0
0.5483870967741935 0.8387096774193549 0.0
0.5806451612903226 0.8387096774193549 0.0
0.6129032258064516 0.8387096774193549 0.0
0.6451612903225806 0.8387096774193549 0.0
0.6774193548387096 0.8387096774193549 0.0
0.7096774193548387 0.8387096774193549 0.0
0.7419354838709677 0.8387096774193549 0.0
0.7741935483870968 0.8387096774193549 0.0
0.8064516129032258 0.8387096774193549 0.0
0.8387096774193549 0.8387096774193549 0.0
0.8709677419354839 0.8387096774193549 0.0
0.9032258064516129 0.8387096774193549 0.0
0.9354838709677419 0.8387096774193549 0.0
0.967741935483871 0.8387096774193549 0.0
1.0 0.8387096774193549 0.0
0.0 0.8064516129032258 0.0
0.03225806451612903 0.8064516129032258 0.0
0.06451612903225806 0.8064516129032258 0.0
0.0967741935483871 0.8064516129032258 0.0
0.12903225806451613 0.8064516129032258 0.0
0.16129032258064516 0.8064516129032258 0.0
0.1935483870967742 0.8064516129032258 0.0
0.22580645161290322 0.8064516129032258 0.0
0.25806451612903225 0.8064516129032258 0.0
0.2903225806451613 0.8064516129032258 0.0
0.3225806451612903 0.8064516129032258 0.0
0.3548387096774194 0.8064516129032258 0.0
0.3870967741935484 0.8064516129032258 0.0
0.41935483870967744 0.8064516129032258 0.0
0.45161290322580644 0.8064516129032258 0.0
0.4838709677419355 0.8064516129032258 0.0
0.5161290322580645 0.8064516129032258 0.0
0.5483870967741935 0.8064516129032258 0.0
0.5806451612903226 0.8064516129032258 0.0
0.6129032258064516 0.8064516129032258 0.0
0.6451612903225806 0.8064516129032258 0.0
0.6774193548387096 0.8064516129032258 0.0
0.7096774193548387 0.8064516129032258 0.0
0.7419354838709677 0.8064516129032258 0.0
0.7741935483870968 0.8064516129032258 0.0
0.8064516129032258 0.8064516129032258 0.0
0.8387096774193549 0.8064516129032258 0.0
0.8709677419354839 0.8064516129032258 0.0
0.9032258064516129 0.8064516129032258 0.0
0.9354838709677419 0.8064516129032258 0.0
0.967741935483871 0.8064516129032258 0.0
1.0 0.8064516129032258 0.0
0.0 0.7741935483870968 0.0
0.03225806451612903 0.7741935483870968 0.0
0.06451612903225806 0.7741935483870968 0.0
0.0967741935483871 0.7741935483870968 0.0
0.12903225806451613 0.7741935483870968 0.0
0.16129032258064516 0.7741935483870968 0.0
0.1935483870967742 0.7741935483870968 0.0
0.22580645161290322 0.7741935483870968 0.0
0.25806451612903225 0.7741935483870968 0.0
0.2903225806451613 0.7741935483870968 0.0
0.3225806451612903 0.7741935483870968 0.0
0.3548387096774194 0.7741935483870968 0.0
0.3870967741935484 0.7741935483870968 0.0
0.41935483870967744 0.7741935483870968 0.0
0.45161290322580644 0.7741935483870968 0.0
0.4838709677419355 0.7741935483870968 0.0
0.5161290322580645 0.7741935483870968 0.0
0.5483870967741935 0.7741935483870968 0.0
0.5806451612903226 0.7741935483870968 0.0
0.6129032258064516 0.7741935483870968 0.0
0.6451612903225806 0.7741935483870968 0.0
0.6774193548387096 0.7741935483870968 0.0
0.7096774193548387 0.7741935483870968 0.0
0.7419354838709677 0.7741935483870968 0.0
0.7741935483870968 0.7741935483870968 0.0
0.8064516129032258 0.7741935483870968 0.0
0.8387096774193549 0.7741935483870968 0.0
0.8709677419354839 0.7741935483870968 0.0
[...]
POINT_DATA 1024
VECTORS NN float
0.003982186317443848 -0.0006695270538330079 0.0
0.00571129322052002 0.0032751262187957764 0.0
0.0052605092525482185 0.0037463903427124023 0.0
0.005045300722122193 0.0033508777618408204 0.0
0.00515592098236084 0.002426713705062866 0.0
0.005156397819519043 0.0018494367599487306 0.0
0.005136346817016602 0.001171863079071045 0.0
0.0051261126995086675 0.0005432724952697754 0.0
0.005048304796218872 3.0368566513061523e-05 0.0
0.004948246479034424 -0.000597226619720459 0.0
0.0048362970352172855 -0.0012224018573760986 0.0
0.004715180397033692 -0.001884227991104126 0.0
0.004559659957885743 -0.002571934461593628 0.0
0.004426711797714234 -0.003244185447692871 0.0
0.004297709465026856 -0.00382189154624939 0.0
0.00418541431427002 -0.004392826557159424 0.0
0.004057389497756958 -0.004965692758560181 0.0
0.003953415155410767 -0.005491852760314941 0.0
0.003845864534378052 -0.005973988771438599 0.0
0.003768664598464966 -0.0064171433448791506 0.0
0.003681367635726929 -0.006891560554504395 0.0
0.0036134600639343263 -0.0073087215423583984 0.0
0.003558015823364258 -0.007717877626419067 0.0
0.003528857231140137 -0.008149707317352295 0.0
0.003523683547973633 -0.008561390638351441 0.0
0.0035778999328613284 -0.008979767560958862 0.0
0.0035918891429901124 -0.00940101742744446 0.0
0.0035942971706390383 -0.009825545549392701 0.0
0.0034611403942108156 -0.010200756788253785 0.0
0.0032899856567382814 -0.01094392240047455 0.0
0.0032363712787628176 -0.011251789331436158 0.0
-0.0010381609201431275 -0.018455019593238833 0.0
0.00661778450012207 0.010000002384185792 0.0
0.006601178646087647 0.009456050395965577 0.0
0.006575089693069459 0.00892651081085205 0.0
0.006552481651306153 0.008391892910003662 0.0
0.006534701585769654 0.007850450277328492 0.0
0.006508755683898926 0.007326048612594605 0.0
0.006469446420669556 0.006767553091049195 0.0
0.0064139246940612795 0.0062620103359222416 0.0
0.006353318691253662 0.0057560265064239505 0.0
0.006296747922897339 0.005261701345443726 0.0
0.006228852272033692 0.004767322540283204 0.0
0.00616336464881897 0.0042990088462829595 0.0
0.006076222658157349 0.0038526117801666263 0.0
0.0059944987297058105 0.003400915861129761 0.0
0.0059054970741271974 0.0029802918434143066 0.0
0.005824244022369385 0.0025734186172485353 0.0
0.0057478129863739015 0.002197903394699097 0.0
0.005667036771774292 0.001825767755508423 0.0
0.005591225624084473 0.0014794528484344484 0.0
0.00552661418914795 0.0011479616165161134 0.0
0.005471020936965942 0.0008250534534454346 0.0
0.005419987440109253 0.0005169689655303956 0.0
0.005385285615921021 0.0002273082733154297 0.0
0.005361080169677734 -6.517171859741211e-05 0.0
0.005342936515808106 -0.00035986900329589846 0.0
0.005330044031143189 -0.0006548404693603516 0.0
0.005331873893737793 -0.0009587287902832032 0.0
0.005332738161087036 -0.0012584805488586428 0.0
0.00533519983291626 -0.0015686869621276856 0.0
0.005343794822692871 -0.0018780291080474855 0.0
0.005357205867767334 -0.0022586703300476077 0.0
-0.0008252114057540894 -0.012805360555648805 0.0
0.006055963039398194 0.010000002384185792 0.0
0.0060617983341217044 0.00945306420326233 0.0
0.006049448251724244 0.008912914991378784 0.0
0.006030791997909546 0.008382445573806763 0.0
0.006006866693496704 0.00784217119216919 0.0
0.00597829818725586 0.00730130672454834 0.0
0.0059454023838043215 0.0067598819732666016 0.0
0.005908221006393433 0.006236249208450318 0.0
0.005863118171691895 0.005734485387802125 0.0
0.005810660123825074 0.0052340984344482425 0.0
0.005759435892105103 0.004742425680160523 0.0
0.005699622631072998 0.004274535179138184 0.0
0.005635350942611694 0.0038140714168548584 0.0
0.005563890933990479 0.003370928764343262 0.0
0.005493330955505371 0.002949362993240357 0.0
0.005427271127700806 0.0025445282459259037 0.0
0.005360633134841919 0.002163863182067871 0.0
0.0052942454814910896 0.0017984449863433839 0.0
0.005235153436660767 0.0014544546604156495 0.0
0.005183261632919312 0.0011227846145629883 0.0
0.0051396191120147705 0.0008016288280487061 0.0
0.005105078220367432 0.0004999160766601563 0.0
0.0050760388374328615 0.00021285414695739748 0.0
0.00505586862564087 -7.60495662689209e-05 0.0
0.0050381779670715336 -0.00036641359329223636 0.0
0.005026102066040039 -0.0006595253944396973 0.0
0.005019557476043702 -0.0009542882442474366 0.0
0.005022072792053223 -0.0012583255767822266 0.0
0.005019456148147583 -0.0015680313110351563 0.0
0.005012106895446778 -0.0018837213516235353 0.0
0.005008769035339356 -0.0022335946559906006 0.0
-0.00048258602619171147 -0.01453128457069397 0.0
0.005535382032394409 0.010000002384185792 0.0
0.005539488792419434 0.009457284212112428 0.0
0.005532681941986084 0.008907163143157959 0.0
0.0055172741413116455 0.008374530076980592 0.0
0.005499160289764405 0.00782882571220398 0.0
0.005479371547698975 0.007288581132888794 0.0
0.005451470613479614 0.006746530532836914 0.0
0.005423396825790405 0.006223666667938233 0.0
0.005384379625320435 0.005712580680847169 0.0
0.005339425802230836 0.005210584402084351 0.0
0.005293035507202149 0.004721778631210327 0.0
0.00524093508720398 0.004249149560928345 0.0
0.00518876314163208 0.0037864983081817628 0.0
0.005132704973220825 0.0033419013023376467 0.0
0.005077147483825684 0.002923822402954102 0.0
0.005022740364074707 0.0025196969509124756 0.0
0.004970574378967286 0.002133047580718994 0.0
0.004919576644897461 0.0017752528190612795 0.0
0.004875338077545166 0.0014327228069305421 0.0
0.004834115505218506 0.0011035025119781495 0.0
0.004799389839172364 0.0007866322994232178 0.0
0.004771089553833008 0.00048464536666870117 0.0
0.004748690128326416 0.00019704699516296387 0.0
0.004727345705032349 -8.377432823181152e-05 0.0
0.004716414213180542 -0.0003784775733947754 0.0
0.004709386825561524 -0.0006622433662414551 0.0
0.004700887203216553 -0.0009568274021148683 0.0
0.004694294929504395 -0.001258981227874756 0.0
0.004692488908767701 -0.0015678107738494873 0.0
0.004687261581420898 -0.001886028051376343 0.0
0.004687541723251343 -0.002212071418762207 0.0
-0.0003474533557891846 -0.014168399572372438 0.0
0.0050335884094238285 0.010000002384185792 0.0
0.005040478706359864 0.009457707405090332 0.0
0.005031746625900269 0.008906418085098266 0.0
0.005027395486831666 0.008366596698760987 0.0
0.005008071660995483 0.007818996906280518 0.0
0.004988056421279908 0.007276570796966553 0.0
0.004966962337493897 0.006739068031311035 0.0
0.004944330453872681 0.006210052967071534 0.0
0.004917365312576295 0.005693703889846802 0.0
0.004885953664779664 0.005190891027450562 0.0
0.004846709966659546 0.00470280647277832 0.0
0.004803961515426636 0.004224348068237305 0.0
0.0047599077224731445 0.0037618458271026613 0.0
0.004715263843536377 0.0033136367797851566 0.0
0.004668170213699341 0.0028997302055358888 0.0
0.0046229600906372076 0.0024926126003265384 0.0
0.0045767962932586675 0.0021112442016601564 0.0
0.004536563158035279 0.001752769947052002 0.0
0.004498422145843506 0.0014140784740448 0.0
0.004467415809631348 0.001088261604309082 0.0
0.004440522193908692 0.0007739305496215821 0.0
0.0044188261032104496 0.00047238469123840333 0.0
0.004405027627944947 0.00018593072891235352 0.0
0.0043910622596740724 -9.235143661499024e-05 0.0
0.00438050627708435 -0.00038113594055175785 0.0
0.004373031854629517 -0.0006682932376861572 0.0
0.00436697006225586 -0.000956946611404419 0.0
0.004364609718322754 -0.0012537240982055664 0.0
0.0043641567230224615 -0.0015587449073791505 0.0
0.004367280006408692 -0.0018727898597717286 0.0
0.004367530345916748 -0.0021964967250823974 0.0
-0.0008528858423233033 -0.01442173719406128 0.0
0.004551905393600464 0.010000002384185792 0.0
0.004554808139801025 0.009456300735473634 0.0
0.004549646377563477 0.008908212184906006 0.0
0.004536628723144531 0.008356571197509766 0.0
0.004527652263641358 0.007812082767486572 0.0
0.004514241218566895 0.007265901565551758 0.0
0.004498970508575439 0.006729781627655029 0.0
0.004480183124542236 0.00619964599609375 0.0
0.004460537433624268 0.005684179067611695 0.0
0.00444023609161377 0.005175268650054932 0.0
0.004407751560211182 0.004681050777435303 0.0
0.00437387228012085 0.00419912338256836 0.0
0.0043372571468353275 0.0037363708019256593 0.0
0.0043026387691497804 0.0032913565635681154 0.0
0.004265826940536499 0.0028730273246765138 0.0
0.004229605197906494 0.002469676733016968 0.0
0.004194223880767823 0.0020904660224914553 0.0
0.004159450531005859 0.0017302334308624268 0.0
0.004129552841186524 0.001394122838973999 0.0
0.004103636741638184 0.0010726630687713623 0.0
0.004083025455474854 0.0007608592510223389 0.0
0.004065871238708496 0.00046448111534118657 0.0
0.0040520310401916506 0.000178605318069458 0.0
0.004038894176483155 -9.971261024475098e-05 0.0
0.004031509160995483 -0.00038360953330993656 0.0
0.004030585289001465 -0.0006624102592468263 0.0
0.00402938723564148 -0.0009504616260528565 0.0
0.00403057336807251 -0.00124051570892334 0.0
0.004032588005065918 -0.0015455007553100586 0.0
0.004035651683807373 -0.0018520653247833252 0.0
0.004040670394897461 -0.0021757662296295168 0.0
-0.001069822907447815 -0.014296433329582215 0.0
0.004081529378890991 0.010000002384185792 0.0
0.004082697629928589 0.00945746898651123 0.0
0.004073572158813476 0.008900839090347291 0.0
0.004065871238708496 0.008357226848602295 0.0
0.004056912660598755 0.007805132865905762 0.0
0.004048842191696167 0.0072608888149261475 0.0
0.004038780927658081 0.00672062635421753 0.0
0.004025107622146607 0.006190967559814454 0.0
0.0040139913558959964 0.0056742548942565925 0.0
0.0039973676204681395 0.00516234040260315 0.0
0.003973460197448731 0.00466156005859375 0.0
0.003950333595275879 0.004177707433700562 0.0
0.003925120830535889 0.0037100136280059817 0.0
0.003899151086807251 0.003268146514892578 0.0
0.003868037462234497 0.002843940258026123 0.0
0.0038397789001464845 0.002446091175079346 0.0
0.00381239652633667 0.0020689070224761963 0.0
0.003783988952636719 0.0017072319984436036 0.0
0.0037568628787994387 0.0013690531253814698 0.0
0.0037313282489776613 0.0010545849800109863 0.0
0.0037148952484130863 0.0007470130920410157 0.0
0.003701925277709961 0.0004573285579681397 0.0
0.00369185209274292 0.0001697540283203125 0.0
0.00368109941482544 -0.00010446310043334962 0.0
0.003679424524307251 -0.00037928819656372074 0.0
0.0036810636520385742 -0.000654357671737671 0.0
0.0036873102188110353 -0.0009344041347503663 0.0
0.003693753480911255 -0.0012228071689605715 0.0
0.0037013053894042972 -0.0015238463878631593 0.0
0.003708791732788086 -0.0018266141414642334 0.0
0.003716361522674561 -0.002142322063446045 0.0
-0.0013109326362609865 -0.014267653226852417 0.0
0.003601658344268799 0.010000002384185792 0.0
0.003607410192489624 0.009458112716674806 0.0
0.0036013543605804446 0.008899492025375367 0.0
0.0036006808280944825 0.008351188898086549 0.0
0.0035962343215942385 0.007802927494049073 0.0
0.003596282005310059 0.007256704568862915 0.0
0.003590965270996094 0.006712478399276734 0.0
0.0035848140716552737 0.006184023618698121 0.0
0.0035754144191741943 0.0056622266769409185 0.0
0.0035602211952209476 0.005145180225372315 0.0
0.003548860549926758 0.004647701978683472 0.0
0.0035372436046600345 0.004159510135650635 0.0
0.0035193800926208497 0.00368686318397522 0.0
0.003494060039520264 0.003242427110671997 0.0
0.0034709334373474125 0.002817487716674805 0.0
0.003447031974792481 0.002417886257171631 0.0
0.0034235000610351564 0.0020413458347320556 0.0
0.0034024357795715333 0.001680666208267212 0.0
0.003378927707672119 0.0013455986976623536 0.0
0.003360581398010254 0.001032024621963501 0.0
0.0033462464809417727 0.000732189416885376 0.0
0.003336930274963379 0.0004477143287658692 0.0
0.00333290696144104 0.000165325403213501 0.0
0.0033297896385192875 -0.00010349154472351075 0.0
0.0033313751220703128 -0.000367969274520874 0.0
0.0033369600772857667 -0.0006378889083862305 0.0
0.003346055746078491 -0.000915294885635376 0.0
0.0033556222915649414 -0.0011980295181274415 0.0
0.0033684611320495606 -0.0014918088912963868 0.0
0.003383976221084595 -0.0017903685569763184 0.0
0.0033996939659118653 -0.00211220383644104 0.0
-0.0015184581279754639 -0.014309531450271607 0.0
0.003130924701690674 0.010000002384185792 0.0
0.003134715557098389 0.009457039833068849 0.0
0.003132712841033936 0.008898872137069703 0.0
0.0031303703784942628 0.00835045576095581 0.0
0.0031343400478363037 0.007801800966262817 0.0
0.00313723087310791 0.007258272171020508 0.0
0.003141528367996216 0.006710910797119141 0.0
0.0031422078609466553 0.006174886226654053 0.0
0.0031394243240356447 0.005648636817932129 0.0
0.0031341552734375 0.00513191819190979 0.0
0.0031295597553253176 0.004633712768554688 0.0
0.003123348951339722 0.004142016172409058 0.0
0.0031110942363739014 0.0036651074886322023 0.0
0.0030981242656707765 0.0032133936882019045 0.0
0.003076744079589844 0.0027869105339050296 0.0
0.003057420253753662 0.002384293079376221 0.0
0.00303722620010376 0.002009427547454834 0.0
0.0030191421508789064 0.0016535460948944093 0.0
0.003003436326980591 0.0013182342052459719 0.0
0.0029902637004852297 0.0010104060173034668 0.0
0.0029829680919647218 0.0007174193859100342 0.0
0.0029790282249450685 0.0004402577877044678 0.0
0.0029782235622406008 0.0001659810543060303 0.0
0.0029809057712554933 -9.775161743164062e-05 0.0
0.00298534631729126 -0.0003568112850189209 0.0
0.002990853786468506 -0.0006201028823852539 0.0
0.0030004560947418215 -0.0008909642696380616 0.0
0.0030126094818115237 -0.0011658191680908204 0.0
0.0030305206775665286 -0.0014528393745422365 0.0
0.003045499324798584 -0.0017459452152252199 0.0
0.003059107065200806 -0.002068781852722168 0.0
-0.0017950862646102907 -0.014294099807739259 0.0
0.0026625812053680423 0.010000002384185792 0.0
0.002665233612060547 0.0094557523727417 0.0
0.0026644527912139896 0.00890178680419922 0.0
0.0026678562164306643 0.008349019289016725 0.0
0.0026767194271087647 0.007809793949127198 0.0
0.002684229612350464 0.00725732445716858 0.0
0.002691668272018433 0.006710916757583618 0.0
0.0026999831199646 0.006170815229415894 0.0
0.002705061435699463 0.0056407630443573 0.0
0.0027113139629364015 0.005120187997817993 0.0
0.0027173280715942385 0.004617565870285035 0.0
0.0027169942855834964 0.004123109579086304 0.0
0.0027118921279907227 0.003639227151870728 0.0
0.0027047038078308106 0.0031844615936279298 0.0
0.0026930034160614017 0.002752029895782471 0.0
0.0026768565177917483 0.002345949411392212 0.0
0.002659028768539429 0.0019724249839782717 0.0
0.0026441991329193117 0.0016210258007049562 0.0
0.0026319026947021484 0.001287907361984253 0.0
0.002624201774597168 0.0009892165660858154 0.0
0.002622473239898682 0.0007033050060272217 0.0
0.002623319625854492 0.000433272123336792 0.0
0.002624410390853882 0.00016732215881347658 0.0
0.0026286840438842773 -8.913874626159668e-05 0.0
0.0026357352733612062 -0.00034564733505249023 0.0
0.002643680572509766 -0.0006005585193634034 0.0
0.0026581406593322757 -0.0008628487586975098 0.0
0.0026751577854156497 -0.0011278092861175537 0.0
0.002691304683685303 -0.0014077782630920411 0.0
0.002706354856491089 -0.0016974747180938722 0.0
0.0027246177196502686 -0.002011227607727051 0.0
-0.0020181775093078614 -0.014305967092514039 0.0
0.002185976505279541 0.010000002384185792 0.0
0.0021924734115600585 0.009458214044570923 0.0
0.002197939157485962 0.008908867835998535 0.0
0.002205479145050049 0.008356595039367675 0.0
0.002210623025894165 0.007810318470001221 0.0
0.0022220969200134276 0.007257825136184693 0.0
0.0022376060485839845 0.006715792417526245 0.0
0.0022553205490112305 0.006171363592147827 0.0
0.0022705256938934325 0.005638211965560913 0.0
0.0022858560085296633 0.0051131010055541996 0.0
0.0023002684116363525 0.0046040892601013185 0.0
0.002309459447860718 0.004104250669479371 0.0
0.002312767505645752 0.0036140918731689454 0.0
0.0023099958896636965 0.003152662515640259 0.0
0.002305269241333008 0.00271453857421875 0.0
0.0022960662841796874 0.00230332612991333 0.0
0.002286022901535034 0.0019301176071166992 0.0
0.0022742271423339846 0.0015841066837310792 0.0
0.0022681057453155518 0.0012575030326843263 0.0
0.0022666454315185547 0.0009672760963439942 0.0
0.002267497777938843 0.0006883561611175538 0.0
0.002269238233566284 0.0004237771034240723 0.0
0.0022746026515960693 0.00017021298408508302 0.0
0.002283400297164917 -8.085966110229493e-05 0.0
0.0022940278053283692 -0.0003307342529296875 0.0
0.002306753396987915 -0.0005764186382293702 0.0
0.002323150634765625 -0.0008278489112854004 0.0
0.002341192960739136 -0.0010870456695556642 0.0
0.002359890937805176 -0.0013583898544311523 0.0
0.002380180358886719 -0.0016390681266784668 0.0
0.002399134635925293 -0.0019422054290771486 0.0
-0.0022736072540283205 -0.014265775680541992 0.0
0.0017090320587158205 0.010000002384185792 0.0
0.0017189741134643556 0.009459984302520753 0.0
0.001723182201385498 0.008917236328125 0.0
0.0017329931259155275 0.008361375331878662 0.0
0.0017446815967559815 0.007812434434890748 0.0
0.001756572723388672 0.007261729240417481 0.0
0.001776552200317383 0.006720787286758423 0.0
0.001803642511367798 0.006179440021514893 0.0
0.0018305480480194092 0.005640429258346558 0.0
0.0018579661846160889 0.005110633373260499 0.0
0.0018820345401763918 0.004594069719314575 0.0
0.0019024133682250977 0.004084926843643188 0.0
0.0019159436225891114 0.0035880208015441895 0.0
0.0019245803356170656 0.003117191791534424 0.0
0.001923978328704834 0.0026695847511291507 0.0
0.0019211828708648683 0.0022583603858947754 0.0
0.0019175827503204346 0.0018864452838897707 0.0
0.001914423704147339 0.0015413045883178713 0.0
0.0019121766090393066 0.001227027177810669 0.0
0.0019159793853759767 0.0009422719478607178 0.0
0.0019227683544158936 0.0006729900836944581 0.0
0.0019298970699310304 0.00041763782501220704 0.0
0.001939326524734497 0.0001710355281829834 0.0
0.0019527792930603028 -7.04944133758545e-05 0.0
0.0019684851169586184 -0.0003113210201263428 0.0
0.001984560489654541 -0.0005487143993377685 0.0
0.0020031332969665527 -0.0007895529270172119 0.0
0.0020242273807525636 -0.001039499044418335 0.0
0.002045595645904541 -0.001301562786102295 0.0
0.002072805166244507 -0.0015728235244750978 0.0
0.0020995795726776122 -0.0018647313117980957 0.0
-0.002489632368087769 -0.01423972249031067 0.0
0.001225721836090088 0.010000002384185792 0.0
0.0012347161769866945 0.009462893009185791 0.0
0.0012407302856445312 0.008921170234680175 0.0
0.0012524127960205078 0.008371531963348389 0.0
0.0012705445289611817 0.007816606760025024 0.0
0.0012909054756164553 0.007270830869674683 0.0
0.0013153970241546631 0.006730276346206665 0.0
0.0013445138931274414 0.006190162897109986 0.0
0.0013805747032165528 0.005648839473724365 0.0
0.0014188468456268312 0.0051156520843505865 0.0
0.0014580488204956055 0.004589444398880005 0.0
0.0014934599399566652 0.004069137573242188 0.0
0.0015224933624267579 0.0035609066486358646 0.0
0.0015422165393829347 0.003078413009643555 0.0
0.0015505731105804445 0.0026214838027954104 0.0
0.0015563547611236574 0.0022080004215240478 0.0
0.0015596270561218262 0.0018358886241912843 0.0
0.00156402587890625 0.0014978528022766115 0.0
0.001570391654968262 0.0011943280696868896 0.0
0.0015798866748809816 0.000917273759841919 0.0
0.0015929341316223145 0.0006584882736206055 0.0
0.0016080260276794434 0.0004114627838134766 0.0
0.0016232311725616457 0.00017703175544738772 0.0
0.0016403675079345705 -5.685687065124512e-05 0.0
0.0016593456268310547 -0.0002874374389648438 0.0
0.0016792893409729006 -0.0005166471004486084 0.0
0.001700890064239502 -0.0007494211196899414 0.0
0.001724386215209961 -0.0009892940521240236 0.0
0.0017479777336120606 -0.0012393355369567872 0.0
0.0017739295959472658 -0.0014980494976043702 0.0
0.001807093620300293 -0.0017778038978576661 0.0
-0.0027297377586364747 -0.014186745882034302 0.0
0.0007325232028961182 0.010000002384185792 0.0
0.0007403790950775146 0.00947040319442749 0.0
0.0007492899894714355 0.00892624855041504 0.0
0.0007617413997650147 0.008378565311431885 0.0
0.0007832646369934082 0.00782751441001892 0.0
0.0008106410503387452 0.0072823047637939455 0.0
0.0008429646492004395 0.00674312710762024 0.0
0.000880342721939087 0.006200778484344483 0.0