# vtk DataFile Version 3.0
# grid.vtk
ASCII
DATASET UNSTRUCTURED_GRID
POINTS 1024 float
0.0 1.0 0.0
0.03225806451612903 1.0 0.0
0.06451612903225806 1.0 0.0
0.0967741935483871 1.0 0.0
0.12903225806451613 1.0 0.0
0.16129032258064516 1.0 0.0
0.1935483870967742 1.0 0.0
0.22580645161290322 1.0 0.0
0.25806451612903225 1.0 0.0
0.2903225806451613 1.0 0.0
0.3225806451612903 1.0 0.0
0.3548387096774194 1.0 0.0
0.3870967741935484 1.0 0.0
0.41935483870967744 1.0 0.0
0.45161290322580644 1.0 0.0
0.4838709677419355 1.0 0.0
0.5161290322580645 1.0 0.0
0.5483870967741935 1.0 0.0
0.5806451612903226 1.0 0.0
0.6129032258064516 1.0 0.0
0.6451612903225806 1.0 0.0
0.6774193548387096 1.0 0.0
0.7096774193548387 1.0 0.0
0.7419354838709677 1.0 0.0
0.7741935483870968 1.0 0.0
0.8064516129032258 1.0 0.0
0.8387096774193549 1.0 0.0
0.8709677419354839 1.0 0.0
0.9032258064516129 1.0 0.0
0.9354838709677419 1.0 0.0
0.967741935483871 1.0 0.0
1.0 1.0 0.0
0.0 0.967741935483871 0.0
0.03225806451612903 0.967741935483871 0.0
0.06451612903225806 0.967741935483871 0.0
0.0967741935483871 0.967741935483871 0.0
0.12903225806451613 0.967741935483871 0.0
0.16129032258064516 0.967741935483871 0.0
0.1935483870967742 0.967741935483871 0.0
0.22580645161290322 0.967741935483871 0.0
0.25806451612903225 0.967741935483871 0.0
0.2903225806451613 0.967741935483871 0.0
0.3225806451612903 0.967741935483871 0.0
0.3548387096774194 0.967741935483871 0.0
0.3870967741935484 0.967741935483871 0.0
0.41935483870967744 0.967741935483871 0.0
0.45161290322580644 0.967741935483871 0.0
0.4838709677419355 0.967741935483871 0.0
0.5161290322580645 0.967741935483871 0.0
0.5483870967741935 0.967741935483871 0.0
0.5806451612903226 0.967741935483871 0.0
0.6129032258064516 0.967741935483871 0.0
0.6451612903225806 0.967741935483871 0.0
0.6774193548387096 0.967741935483871 0.0
0.7096774193548387 0.967741935483871 0.0
0.7419354838709677 0.967741935483871 0.0
0.7741935483870968 0.967741935483871 0.0
0.8064516129032258 0.967741935483871 0.0
0.8387096774193549 0.967741935483871 0.0
0.8709677419354839 0.967741935483871 0.0
0.9032258064516129 0.967741935483871 0.0
0.9354838709677419 0.967741935483871 0.0
0.967741935483871 0.967741935483871 0.0
1.0 0.967741935483871 0.0
0.0 0.9354838709677419 0.0
0.03225806451612903 0.9354838709677419 0.0
0.06451612903225806 0.9354838709677419 0.0
0.0967741935483871 0.9354838709677419 0.0
0.12903225806451613 0.9354838709677419 0.0
0.16129032258064516 0.9354838709677419 0.0
0.1935483870967742 0.9354838709677419 0.0
0.22580645161290322 0.9354838709677419 0.0
0.25806451612903225 0.9354838709677419 0.0
0.2903225806451613 0.9354838709677419 0.0
0.3225806451612903 0.9354838709677419 0.0
0.3548387096774194 0.9354838709677419 0.0
0.3870967741935484 0.9354838709677419 0.0
0.41935483870967744 0.9354838709677419 0.0
0.45161290322580644 0.9354838709677419 0.0
0.4838709677419355 0.9354838709677419 0.0
0.5161290322580645 0.9354838709677419 0.0
0.5483870967741935 0.9354838709677419 0.0
0.5806451612903226 0.9354838709677419 0.0
0.6129032258064516 0.9354838709677419 0.0
0.6451612903225806 0.9354838709677419 0.0
0.6774193548387096 0.9354838709677419 0.0
0.7096774193548387 0.9354838709677419 0.0
0.7419354838709677 0.9354838709677419 0.0
0.7741935483870968 0.9354838709677419 0.0
0.8064516129032258 0.9354838709677419 0.0
0.8387096774193549 0.9354838709677419 0.0
0.8709677419354839 0.9354838709677419 0.0
0.9032258064516129 0.9354838709677419 0.0
0.9354838709677419 0.9354838709677419 0.0
0.967741935483871 0.9354838709677419 0.0
1.0 0.9354838709677419 0.0
0.0 0.9032258064516129 0.0
0.03225806451612903 0.9032258064516129 0.0
0.06451612903225806 0.9032258064516129 0.0
0.0967741935483871 0.9032258064516129 0.0
0.12903225806451613 0.9032258064516129 0.0
0.16129032258064516 0.9032258064516129 0.0
0.1935483870967742 0.9032258064516129 0.0
0.22580645161290322 0.9032258064516129 0.0
0.25806451612903225 0.9032258064516129 0.0
0.2903225806451613 0.9032258064516129 0.0
0.3225806451612903 0.9032258064516129 0.0
0.3548387096774194 0.9032258064516129 0.0
0.3870967741935484 0.9032258064516129 0.0
0.41935483870967744 0.9032258064516129 0.0
0.45161290322580644 0.9032258064516129 0.0
0.4838709677419355 0.9032258064516129 0.0
0.5161290322580645 0.9032258064516129 0.0
0.5483870967741935 0.9032258064516129 0.0
0.5806451612903226 0.9032258064516129 0.0
0.6129032258064516 0.9032258064516129 0.0
0.6451612903225806 0.9032258064516129 0.0
0.6774193548387096 0.9032258064516129 0.0
0.7096774193548387 0.9032258064516129 0.0
0.7419354838709677 0.9032258064516129 0.0
0.7741935483870968 0.9032258064516129 0.0
0.8064516129032258 0.9032258064516129 0.0
0.8387096774193549 0.9032258064516129 0.0
0.8709677419354839 0.9032258064516129 0.0
0.9032258064516129 0.9032258064516129 0.0
0.9354838709677419 0.9032258064516129 0.0
0.967741935483871 0.9032258064516129 0.0
1.0 0.9032258064516129 0.0
0.0 0.8709677419354839 0.0
0.03225806451612903 0.8709677419354839 0.0
0.06451612903225806 0.8709677419354839 0.0
0.0967741935483871 0.8709677419354839 0.0
0.12903225806451613 0.8709677419354839 0.0
0.16129032258064516 0.8709677419354839 0.0
0.1935483870967742 0.8709677419354839 0.0
0.22580645161290322 0.8709677419354839 0.0
0.25806451612903225 0.8709677419354839 0.0
0.2903225806451613 0.8709677419354839 0.0
0.3225806451612903 0.8709677419354839 0.0
0.3548387096774194 0.8709677419354839 0.0
0.3870967741935484 0.8709677419354839 0.0
0.41935483870967744 0.8709677419354839 0.0
0.45161290322580644 0.8709677419354839 0.0
0.4838709677419355 0.8709677419354839 0.0
0.5161290322580645 0.8709677419354839 0.0
0.5483870967741935 0.8709677419354839 0.0
0.5806451612903226 0.8709677419354839 0.0
0.6129032258064516 0.8709677419354839 0.0
0.6451612903225806 0.8709677419354839 0.0
0.6774193548387096 0.8709677419354839 0.0
0.7096774193548387 0.8709677419354839 0.0
0.7419354838709677 0.8709677419354839 0.0
0.7741935483870968 0.8709677419354839 0.0
0.8064516129032258 0.8709677419354839 0.0
0.8387096774193549 0.8709677419354839 0.0
0.8709677419354839 0.8709677419354839 0.0
0.9032258064516129 0.8709677419354839 0.0
0.9354838709677419 0.8709677419354839 0.0
0.967741935483871 0.8709677419354839 0.0
1.0 0.8709677419354839 0.0
0.0 0.8387096774193549 0.0
0.03225806451612903 0.8387096774193549 0.0
0.06451612903225806 0.8387096774193549 0.0
0.0967741935483871 0.8387096774193549 0.0
0.12903225806451613 0.8387096774193549 0.0
0.16129032258064516 0.8387096774193549 0.0
0.1935483870967742 0.8387096774193549 0.0
0.22580645161290322 0.8387096774193549 0.0
0.25806451612903225 0.8387096774193549 0.0
0.2903225806451613 0.8387096774193549 0.0
0.3225806451612903 0.8387096774193549 0.0
0.3548387096774194 0.8387096774193549 0.0
0.3870967741935484 0.8387096774193549 0.0
0.41935483870967744 0.8387096774193549 0.0
0.45161290322580644 0.8387096774193549 0.0
0.4838709677419355 0.8387096774193549 0.0
0.5161290322580645 0.8387096774193549 0.0
0.5483870967741935 0.8387096774193549 0.0
0.5806451612903226 0.8387096774193549 0.0
0.6129032258064516 0.8387096774193549 0.0
0.6451612903225806 0.8387096774193549 0.0
0.6774193548387096 0.8387096774193549 0.0
0.7096774193548387 0.8387096774193549 0.0
0.7419354838709677 0.8387096774193549 0.0
0.7741935483870968 0.8387096774193549 0.0
0.8064516129032258 0.8387096774193549 0.0
0.8387096774193549 0.8387096774193549 0.0
0.8709677419354839 0.8387096774193549 0.0
0.9032258064516129 0.8387096774193549 0.0
0.9354838709677419 0.8387096774193549 0.0
0.967741935483871 0.8387096774193549 0.0
1.0 0.8387096774193549 0.0
0.0 0.8064516129032258 0.0
0.03225806451612903 0.8064516129032258 0.0
0.06451612903225806 0.8064516129032258 0.0
0.0967741935483871 0.8064516129032258 0.0
0.12903225806451613 0.8064516129032258 0.0
0.16129032258064516 0.8064516129032258 0.0
0.1935483870967742 0.8064516129032258 0.0
0.22580645161290322 0.8064516129032258 0.0
0.25806451612903225 0.8064516129032258 0.0
0.2903225806451613 0.8064516129032258 0.0
0.3225806451612903 0.8064516129032258 0.0
0.3548387096774194 0.8064516129032258 0.0
0.3870967741935484 0.8064516129032258 0.0
0.41935483870967744 0.8064516129032258 0.0
0.45161290322580644 0.8064516129032258 0.0
0.4838709677419355 0.8064516129032258 0.0
0.5161290322580645 0.8064516129032258 0.0
0.5483870967741935 0.8064516129032258 0.0
0.5806451612903226 0.8064516129032258 0.0
0.6129032258064516 0.8064516129032258 0.0
0.6451612903225806 0.8064516129032258 0.0
0.6774193548387096 0.8064516129032258 0.0
0.7096774193548387 0.8064516129032258 0.0
0.7419354838709677 0.8064516129032258 0.0
0.7741935483870968 0.8064516129032258 0.0
0.8064516129032258 0.8064516129032258 0.0
0.8387096774193549 0.8064516129032258 0.0
0.8709677419354839 0.8064516129032258 0.0
0.9032258064516129 0.8064516129032258 0.0
0.9354838709677419 0.8064516129032258 0.0
0.967741935483871 0.8064516129032258 0.0
1.0 0.8064516129032258 0.0
0.0 0.7741935483870968 0.0
0.03225806451612903 0.7741935483870968 0.0
0.06451612903225806 0.7741935483870968 0.0
0.0967741935483871 0.7741935483870968 0.0
0.12903225806451613 0.7741935483870968 0.0
0.16129032258064516 0.7741935483870968 0.0
0.1935483870967742 0.7741935483870968 0.0
0.22580645161290322 0.7741935483870968 0.0
0.25806451612903225 0.7741935483870968 0.0
0.2903225806451613 0.7741935483870968 0.0
0.3225806451612903 0.7741935483870968 0.0
0.3548387096774194 0.7741935483870968 0.0
0.3870967741935484 0.7741935483870968 0.0
0.41935483870967744 0.7741935483870968 0.0
0.45161290322580644 0.7741935483870968 0.0
0.4838709677419355 0.7741935483870968 0.0
0.5161290322580645 0.7741935483870968 0.0
0.5483870967741935 0.7741935483870968 0.0
0.5806451612903226 0.7741935483870968 0.0
0.6129032258064516 0.7741935483870968 0.0
0.6451612903225806 0.7741935483870968 0.0
0.6774193548387096 0.7741935483870968 0.0
0.7096774193548387 0.7741935483870968 0.0
0.7419354838709677 0.7741935483870968 0.0
0.7741935483870968 0.7741935483870968 0.0
0.8064516129032258 0.7741935483870968 0.0
0.8387096774193549 0.7741935483870968 0.0
0.8709677419354839 0.7741935483870968 0.0
[...]
POINT_DATA 1024
VECTORS NN float
0.008597713708877564 0.0062426507472991945 0.0
0.010727185010910035 0.010971927642822267 0.0
0.01011592149734497 0.01124904751777649 0.0
0.009830462932586671 0.010636699199676514 0.0
0.009929955005645752 0.009306716918945314 0.0
0.009890764951705933 0.00810149908065796 0.0
0.00981806516647339 0.006935131549835206 0.0
0.009765207767486572 0.005708140134811402 0.0
0.009634053707122803 0.004845148324966431 0.0
0.009439945220947266 0.0037318944931030275 0.0
0.009243404865264893 0.0027303695678710938 0.0
0.009024035930633546 0.0016137361526489258 0.0
0.008758008480072021 0.0005787134170532227 0.0
0.008482599258422851 -0.0003852188587188721 0.0
0.008218073844909668 -0.0012700378894805909 0.0
0.007963478565216064 -0.002115505933761597 0.0
0.007696807384490967 -0.0029559850692749026 0.0
0.007450079917907715 -0.0037450432777404786 0.0
0.007211923599243164 -0.004434442520141602 0.0
0.007012939453125 -0.005075162649154663 0.0
0.006832212209701538 -0.005744385719299317 0.0
0.006667733192443848 -0.0063456416130065925 0.0
0.006534457206726074 -0.006971013545989991 0.0
0.006428462266921998 -0.0076575040817260746 0.0
0.0063782215118408205 -0.008268171548843383 0.0
0.0063720464706420905 -0.008847588300704956 0.0
0.006346350908279419 -0.009395337104797364 0.0
0.006347376108169556 -0.009980356693267823 0.0
0.006194460391998291 -0.010542091727256776 0.0
0.005972754955291749 -0.011440551280975342 0.0
0.00556023120880127 -0.011837852001190186 0.0
0.0007071197032928467 -0.018478289246559143 0.0
0.012307417392730714 0.019999998807907107 0.0
0.012302255630493164 0.018894958496093753 0.0
0.012270063161849976 0.017802053689956666 0.0
0.01222144365310669 0.016721725463867188 0.0
0.012148404121398927 0.015627187490463258 0.0
0.012055349349975587 0.014549261331558228 0.0
0.011937868595123292 0.013479816913604737 0.0
0.011799180507659913 0.012442845106124879 0.0
0.011642765998840333 0.011432063579559327 0.0
0.011472958326339723 0.010450267791748048 0.0
0.011287271976470947 0.009493845701217652 0.0
0.01108211874961853 0.008570069074630737 0.0
0.010858225822448732 0.007693427801132202 0.0
0.010626518726348878 0.006854748725891114 0.0
0.010392379760742188 0.006061512231826782 0.0
0.010157197713851929 0.005319952964782715 0.0
0.009934818744659424 0.004623842239379883 0.0
0.009715449810028077 0.003971374034881592 0.0
0.009506529569625855 0.003361982107162476 0.0
0.009322881698608398 0.002781850099563599 0.0
0.009151238203048707 0.0022351861000061038 0.0
0.008995115756988525 0.001712864637374878 0.0
0.008864188194274902 0.0012097060680389404 0.0
0.008760368824005127 0.0007237136363983155 0.0
0.008672720193862915 0.00024309754371643066 0.0
0.008607202768325805 -0.0002267301082611084 0.0
0.008559507131576539 -0.000701141357421875 0.0
0.008529454469680786 -0.001163792610168457 0.0
0.008505415916442872 -0.0016458749771118164 0.0
0.008491921424865724 -0.0021354138851165773 0.0
0.008486449718475342 -0.0026415765285491945 0.0
0.0015619277954101564 -0.012519785761833192 0.0
0.011234354972839356 0.019999998807907107 0.0
0.011233299970626831 0.018894290924072268 0.0
0.011204528808593751 0.017792713642120362 0.0
0.011159878969192506 0.016693633794784547 0.0
0.011093282699584962 0.015590548515319824 0.0
0.011008155345916749 0.014506745338439942 0.0
0.01090923547744751 0.013432621955871582 0.0
0.010795849561691285 0.012383919954299927 0.0
0.010668742656707765 0.01136603355407715 0.0
0.010524988174438477 0.010376507043838502 0.0
0.010365772247314454 0.009414821863174438 0.0
0.010192632675170898 0.008489841222763061 0.0
0.010011762380599976 0.007604920864105225 0.0
0.009822666645050049 0.006764096021652222 0.0
0.009629255533218384 0.005970954895019531 0.0
0.009442329406738281 0.005229681730270386 0.0
0.009253716468811036 0.004538935422897339 0.0
0.009073317050933838 0.0038873016834259037 0.0
0.008900308609008789 0.003281897306442261 0.0
0.008740800619125367 0.0027094542980194095 0.0
0.008596265316009521 0.0021662473678588866 0.0
0.00847010612487793 0.0016500294208526612 0.0
0.008357465267181396 0.0011574625968933105 0.0
0.008262765407562257 0.0006808459758758545 0.0
0.00818697214126587 0.00021212100982666017 0.0
0.008125054836273194 -0.00025132894515991213 0.0
0.008077991008758546 -0.0007116615772247315 0.0
0.008046317100524903 -0.0011766731739044191 0.0
0.008020114898681641 -0.0016561388969421388 0.0
0.008003175258636475 -0.0021429717540740966 0.0
0.007995045185089112 -0.002643221616744995 0.0
0.0017280101776123047 -0.014548915624618531 0.0
0.0101962149143219 0.019999998807907107 0.0
0.010197466611862183 0.01889426112174988 0.0
0.0101756751537323 0.017779016494750978 0.0
0.01013692617416382 0.016669142246246337 0.0
0.010081458091735841 0.015561240911483766 0.0
0.010014039278030396 0.01447371244430542 0.0
0.009929835796356201 0.013393330574035646 0.0
0.009836173057556153 0.012339681386947632 0.0
0.009731221199035646 0.01131165623664856 0.0
0.00961243510246277 0.010313677787780763 0.0
0.00948162078857422 0.009349215030670167 0.0
0.009338557720184326 0.008421766757965089 0.0
0.009189224243164063 0.0075349509716033936 0.0
0.009034568071365356 0.0066908299922943115 0.0
0.008875930309295654 0.005895888805389405 0.0
0.008717316389083863 0.005152851343154907 0.0
0.008560949563980102 0.0044604003429412845 0.0
0.008409041166305543 0.00381508469581604 0.0
0.008265399932861328 0.003212326765060425 0.0
0.008133387565612793 0.002644366025924683 0.0
0.008012259006500244 0.0021062016487121585 0.0
0.007904207706451416 0.0015949547290802003 0.0
0.007812649011611938 0.0011076509952545166 0.0
0.007731986045837403 0.0006394505500793457 0.0
0.007664501667022705 0.0001786351203918457 0.0
0.0076112389564514165 -0.00027441382408142093 0.0
0.007569295167922974 -0.000731426477432251 0.0
0.0075368046760559086 -0.00119096040725708 0.0
0.007513678073883057 -0.0016668498516082765 0.0
0.007497173547744752 -0.0021437466144561767 0.0
0.007486057281494141 -0.0026499569416046143 0.0
0.0016802668571472168 -0.014396345615386963 0.0
0.009201729297637939 0.019999998807907107 0.0
0.009205961227416992 0.018889409303665162 0.0
0.009186601638793946 0.01776973605155945 0.0
0.009156453609466554 0.01664785146713257 0.0
0.009110206365585327 0.015539687871932984 0.0
0.009053933620452882 0.014443355798721315 0.0
0.008988595008850098 0.013359683752059938 0.0
0.008912557363510131 0.012300080060958863 0.0
0.008826768398284912 0.011267155408859253 0.0
0.008732807636260987 0.01026381254196167 0.0
0.008625173568725586 0.009293627738952637 0.0
0.008510327339172364 0.008360683917999268 0.0
0.00838659405708313 0.007471603155136109 0.0
0.008258628845214845 0.006625354290008545 0.0
0.008129298686981201 0.005830729007720948 0.0
0.00799839496612549 0.005086183547973633 0.0
0.007866638898849488 0.0043912529945373535 0.0
0.0077406525611877445 0.003747314214706421 0.0
0.007620298862457276 0.00314788818359375 0.0
0.007505667209625245 0.00258675217628479 0.0
0.007402884960174561 0.002050703763961792 0.0
0.007312601804733277 0.0015475869178771973 0.0
0.007236742973327637 0.0010657727718353272 0.0
0.007171225547790528 0.0006045281887054444 0.0
0.00711512565612793 0.00015210509300231934 0.0
0.007070887088775635 -0.000295788049697876 0.0
0.007035565376281739 -0.00074424147605896 0.0
0.00700899362564087 -0.0011978328227996828 0.0
0.006989628076553345 -0.001669597625732422 0.0
0.006973302364349366 -0.0021438717842102053 0.0
0.006962567567825317 -0.0026533424854278567 0.0
0.001096951961517334 -0.014675992727279664 0.0
0.008245587348937988 0.019999998807907107 0.0
0.00824710726737976 0.018885236978530884 0.0
0.008230412006378173 0.017761343717575075 0.0
0.008203524351119996 0.01663087010383606 0.0
0.008169299364089966 0.015520501136779786 0.0
0.00812976360321045 0.014419192075729372 0.0
0.008078491687774659 0.013331031799316407 0.0
0.00801929235458374 0.012265425920486451 0.0
0.007952022552490235 0.011228758096694947 0.0
0.007877343893051147 0.010219794511795045 0.0
0.007794302701950074 0.009243792295455933 0.0
0.007701992988586426 0.008305031061172486 0.0
0.007601690292358399 0.007412052154541016 0.0
0.007497632503509522 0.006564629077911378 0.0
0.007391643524169923 0.00576813817024231 0.0
0.007280576229095459 0.005019265413284302 0.0
0.00717533826828003 0.004323667287826538 0.0
0.007068324089050293 0.003682166337966919 0.0
0.006966781616210938 0.003086584806442261 0.0
0.006870728731155396 0.002526497840881348 0.0
0.006786102056503296 0.0019987821578979492 0.0
0.006710988283157349 0.0015032947063446046 0.0
0.006645166873931885 0.0010299384593963623 0.0
0.006589716672897339 0.000574183464050293 0.0
0.006545162200927735 0.00013016462326049806 0.0
0.0065119326114654544 -0.0003065943717956543 0.0
0.006485289335250855 -0.0007509827613830567 0.0
0.006465530395507813 -0.001198810338973999 0.0
0.006452178955078125 -0.0016638517379760744 0.0
0.0064413964748382575 -0.002142786979675293 0.0
0.006432944536209107 -0.002653801441192627 0.0
0.0007107853889465332 -0.014595776796340942 0.0
0.007310295104980469 0.019999998807907107 0.0
0.007309961318969727 0.01888241767883301 0.0
0.007295268774032593 0.017749762535095217 0.0
0.0072748601436614995 0.016618794202804568 0.0
0.007253450155258179 0.01550469994544983 0.0
0.007224047183990479 0.0143993079662323 0.0
0.007190221548080445 0.013306891918182373 0.0
0.007146179676055908 0.012236428260803223 0.0
0.007098937034606934 0.01119523048400879 0.0
0.00704348087310791 0.010179829597473145 0.0
0.006977689266204835 0.009196734428405762 0.0
0.006908297538757324 0.00825408697128296 0.0
0.006831854581832886 0.007353687286376954 0.0
0.006749111413955689 0.006505191326141357 0.0
0.006659847497940064 0.005702900886535645 0.0
0.00656912922859192 0.004955512285232545 0.0
0.006481045484542847 0.004259347915649414 0.0
0.006394624710083008 0.0036155760288238527 0.0
0.0063099384307861335 0.0030234694480895997 0.0
0.006229197978973389 0.002467906475067139 0.0
0.006159883737564088 0.0019493043422698975 0.0
0.006097733974456787 0.001463305950164795 0.0
0.006044715642929077 0.0009955286979675293 0.0
0.006000381708145142 0.000549083948135376 0.0
0.005968219041824341 0.00011718869209289552 0.0
0.005941271781921387 -0.00031586289405822755 0.0
0.005922746658325196 -0.0007491528987884522 0.0
0.0059105753898620605 -0.0011933565139770508 0.0
0.00590430498123169 -0.00165136456489563 0.0
0.0059020638465881355 -0.0021321952342987062 0.0
0.005901932716369629 -0.0026399254798889164 0.0
0.00031497478485107425 -0.01450304388999939 0.0
0.006379401683807373 0.019999998807907107 0.0
0.006387364864349366 0.018878740072250367 0.0
0.00637657642364502 0.01774197816848755 0.0
0.006366729736328125 0.016609472036361695 0.0
0.0063517034053802495 0.015495449304580688 0.0
0.006336802244186402 0.014382749795913696 0.0
0.006315898895263673 0.013289254903793336 0.0
0.006290817260742188 0.012212437391281129 0.0
0.0062578082084655765 0.011164671182632447 0.0
0.006219393014907837 0.010143411159515382 0.0
0.006178432703018189 0.009156864881515504 0.0
0.006129097938537598 0.008204406499862671 0.0
0.006072288751602173 0.007297486066818237 0.0
0.0060033977031707765 0.006443089246749878 0.0
0.0059340238571167 0.005636733770370484 0.0
0.005861777067184448 0.004887253046035767 0.0
0.0057866573333740234 0.004193550348281861 0.0
0.005716854333877564 0.003550088405609131 0.0
0.005648064613342285 0.0029588282108306886 0.0
0.0055856466293334964 0.0024117231369018555 0.0
0.005529129505157471 0.001900380849838257 0.0
0.005480432510375977 0.0014227986335754396 0.0
0.005441409349441529 0.0009665310382843018 0.0
0.005409061908721924 0.0005306839942932129 0.0
0.005383425951004029 0.00010789632797241211 0.0
0.005366671085357666 -0.00031434893608093265 0.0
0.00535542368888855 -0.0007423341274261475 0.0
0.005350905656814575 -0.0011765122413635255 0.0
0.0053514778614044195 -0.001628386974334717 0.0
0.005357295274734497 -0.0021037280559539798 0.0
0.005366021394729615 -0.0026194810867309574 0.0
-3.8382411003112796e-05 -0.014605006575584412 0.0
0.005464726686477662 0.019999998807907107 0.0
0.00546870231628418 0.018874800205230715 0.0
0.0054641544818878176 0.017739152908325197 0.0
0.00545954704284668 0.01660665273666382 0.0
0.005456697940826417 0.015487003326416017 0.0
0.005450773239135742 0.014375686645507812 0.0
0.005444550514221192 0.013276350498199464 0.0
0.005433869361877442 0.012195205688476563 0.0
0.00542328953742981 0.011141926050186157 0.0
0.005406486988067627 0.010111421346664429 0.0
0.005383539199829102 0.00911899209022522 0.0
0.005353015661239625 0.008158338069915772 0.0
0.005313074588775635 0.007242655754089356 0.0
0.0052696168422698975 0.006376314163208008 0.0
0.00521281361579895 0.005567419528961182 0.0
0.005155301094055176 0.004814785718917847 0.0
0.005097061395645142 0.004122841358184815 0.0
0.0050387620925903326 0.0034840404987335205 0.0
0.004986351728439331 0.0028943121433258057 0.0
0.004939830303192139 0.002355200052261353 0.0
0.004900038242340088 0.0018524885177612306 0.0
0.004864895343780518 0.0013863980770111085 0.0
0.004838508367538453 0.0009426534175872803 0.0
0.004818475246429444 0.000515824556350708 0.0
0.004800617694854736 0.00010260343551635743 0.0
0.004789596796035767 -0.0003099024295806885 0.0
0.004785299301147461 -0.0007250964641571045 0.0
0.004787939786911011 -0.001150447130203247 0.0
0.004796278476715089 -0.0015946447849273682 0.0
0.004805785417556763 -0.002063995599746704 0.0
0.004818320274353027 -0.0025747716426849365 0.0
-0.00048051476478576664 -0.014583402872085573 0.0
0.004537856578826905 0.019999998807907107 0.0
0.004545056819915772 0.018873655796051027 0.0
0.004546034336090088 0.017737972736358642 0.0
0.004551601409912109 0.016608399152755738 0.0
0.0045593976974487305 0.01548604965209961 0.0
0.004567778110504151 0.01436951756477356 0.0
0.0045748472213745115 0.013271361589431763 0.0
0.004583066701889038 0.012185633182525635 0.0
0.004589080810546875 0.011126083135604859 0.0
0.004595959186553956 0.01008816957473755 0.0
0.004597675800323486 0.009081101417541504 0.0
0.004589200019836426 0.008113431930541993 0.0
0.004570806026458741 0.0071851730346679694 0.0
0.004543691873550415 0.0063104271888732915 0.0
0.004508018493652344 0.005490964651107788 0.0
0.00446355938911438 0.004735350608825684 0.0
0.004415947198867798 0.0040451824665069585 0.0
0.004372555017471314 0.0034104883670806885 0.0
0.004333865642547607 0.002827352285385132 0.0
0.004301035404205323 0.002299267053604126 0.0
0.004276072978973389 0.0018070101737976076 0.0
0.00425492525100708 0.0013537883758544924 0.0
0.004237443208694458 0.0009217321872711182 0.0
0.004225540161132813 0.0005070328712463379 0.0
0.004218488931655884 0.00010006427764892579 0.0
0.004217493534088135 -0.00029675960540771485 0.0
0.004223930835723877 -0.000702577829360962 0.0
0.00423504114151001 -0.0011168241500854493 0.0
0.004245954751968384 -0.0015512466430664064 0.0
0.004261171817779541 -0.0020111143589019776 0.0
0.004283338785171509 -0.002510499954223633 0.0
-0.0008467048406600952 -0.014621648192405702 0.0
0.003604257106781006 0.019999998807907107 0.0
0.0036191105842590336 0.018876981735229493 0.0
0.0036274492740631104 0.01774309277534485 0.0
0.0036418795585632328 0.016612786054611205 0.0
0.0036545157432556156 0.01548811197280884 0.0
0.0036770105361938477 0.014371639490127564 0.0
0.0037023246288299563 0.013271945714950563 0.0
0.0037308573722839356 0.012184137105941774 0.0
0.0037590146064758303 0.011115896701812745 0.0
0.0037862658500671387 0.010070335865020753 0.0
0.003809815645217896 0.009053176641464234 0.0
0.0038274824619293213 0.008070778846740723 0.0
0.0038318395614624027 0.007128489017486573 0.0
0.00382230281829834 0.006237471103668213 0.0
0.0038047790527343753 0.00541103482246399 0.0
0.0037786006927490235 0.0046464502811431885 0.0
0.0037488222122192385 0.003959012031555176 0.0
0.003719437122344971 0.003332692384719849 0.0
0.0036970674991607666 0.002759015560150147 0.0
0.003679335117340088 0.0022434115409851077 0.0
0.003665071725845337 0.0017621755599975587 0.0
0.0036541938781738284 0.0013190269470214845 0.0
0.00364801287651062 0.0009050488471984864 0.0
0.0036473929882049564 0.0005001842975616456 0.0
0.003650456666946411 0.00010518431663513184 0.0
0.0036596357822418213 -0.0002798020839691162 0.0
0.003673273324966431 -0.000670069456100464 0.0
0.0036890268325805668 -0.001075369119644165 0.0
0.0037091791629791262 -0.0014977455139160156 0.0
0.003731667995452881 -0.0019432246685028077 0.0
0.0037586748600006107 -0.0024274766445159914 0.0
-0.0012576878070831299 -0.014553791284561158 0.0
0.002668607234954834 0.019999998807907107 0.0
0.002681487798690796 0.018881183862686158 0.0
0.0026943624019622804 0.017752534151077273 0.0
0.0027147233486175537 0.016620492935180666 0.0
0.0027417659759521487 0.015496766567230225 0.0
0.0027735114097595217 0.014381706714630127 0.0
0.002813929319381714 0.01328076720237732 0.0
0.002863156795501709 0.012193775177001953 0.0
0.002915066480636597 0.011116236448287964 0.0
0.0029719412326812745 0.010064458847045899 0.0
0.003022104501724243 0.009035062789916993 0.0
0.0030653297901153567 0.008036792278289795 0.0
0.0030981421470642092 0.007073652744293214 0.0
0.0031170308589935306 0.006163012981414796 0.0
0.003116750717163086 0.005319279432296754 0.0
0.0031066477298736573 0.004553043842315674 0.0
0.0030940353870391847 0.0038670897483825684 0.0
0.003082925081253052 0.0032460331916809083 0.0
0.0030732572078704837 0.0026887238025665285 0.0
0.0030708014965057373 0.0021847665309906008 0.0
0.0030711650848388675 0.0017179906368255617 0.0
0.003073948621749878 0.0012899339199066162 0.0
0.0030796706676483156 0.0008867442607879639 0.0
0.0030906379222869875 0.0004982948303222656 0.0
0.0031065642833709717 0.00011826753616333008 0.0
0.0031249523162841797 -0.0002541303634643555 0.0
0.003143364191055298 -0.0006327331066131592 0.0
0.0031667232513427736 -0.001023155450820923 0.0
0.003192180395126343 -0.0014311492443084717 0.0
0.003223848342895508 -0.001861882209777832 0.0
0.003258317708969116 -0.0023304760456085206 0.0
-0.0016188502311706545 -0.014541637897491456 0.0
0.001715594530105591 0.019999998807907107 0.0
0.0017306208610534668 0.01888614296913147 0.0
0.0017452836036682129 0.017759543657302857 0.0
0.0017711818218231201 0.0166365385055542 0.0
0.0018082857131958008 0.015511125326156616 0.0
0.001855015754699707 0.014399302005767823 0.0
0.0019116520881652832 0.013297921419143677 0.0
0.001976507902145386 0.012210869789123537 0.0
0.002051687240600586 0.011130285263061524 0.0
0.002132946252822876 0.010071861743927003 0.0
0.0022202730178833008 0.009030365943908691 0.0
0.0023003458976745606 0.008011072874069214 0.0
0.0023664772510528565 0.00702359676361084 0.0
0.0024142444133758547 0.006085050106048585 0.0
0.002438825368881226 0.0052199184894561775 0.0
0.002450978755950928 0.004447579383850098 0.0
0.0024562597274780276 0.003763127326965332 0.0
0.0024623632431030277 0.0031552910804748535 0.0
0.0024720609188079836 0.0026126742362976075 0.0
0.0024833977222442627 0.0021233975887298587 0.0
0.0024997115135192874 0.0016759276390075684 0.0
0.0025203108787536623 0.0012607216835021974 0.0
0.0025396287441253663 0.0008766412734985352 0.0
0.0025616228580474854 0.0004993498325347901 0.0
0.0025851190090179447 0.00013568401336669922 0.0
0.0026094913482666016 -0.0002245485782623291 0.0
0.0026361703872680668 -0.0005883514881134034 0.0
0.002664172649383545 -0.0009632110595703125 0.0
0.002693617343902588 -0.0013555049896240236 0.0
0.002728378772735596 -0.0017668426036834717 0.0
0.002773392200469971 -0.002216887474060059 0.0
-0.0020062148571014407 -0.01446077823638916 0.0
0.0007416248321533204 0.019999998807907107 0.0
0.0007547140121459961 0.01889331340789795 0.0
0.0007732927799224854 0.017771202325820922 0.0
0.0008047103881835938 0.016653257608413696 0.0
0.0008491277694702148 0.015533369779586793 0.0
0.0009084165096282959 0.014423638582229614 0.0
0.0009819984436035157 0.013327133655548096 0.0
0.0010655581951141359 0.012236124277114869 0.0
0.0011633872985839845 0.011159515380859375 0.0
0.0012736678123474122 0.010097110271453859 0.0
0.0013878762722015381 0.009045034646987915 0.0