# vtk DataFile Version 3.0
# grid.vtk
ASCII
DATASET UNSTRUCTURED_GRID
POINTS 1024 float
0.0 1.0 0.0
0.03225806451612903 1.0 0.0
0.06451612903225806 1.0 0.0
0.0967741935483871 1.0 0.0
0.12903225806451613 1.0 0.0
0.16129032258064516 1.0 0.0
0.1935483870967742 1.0 0.0
0.22580645161290322 1.0 0.0
0.25806451612903225 1.0 0.0
0.2903225806451613 1.0 0.0
0.3225806451612903 1.0 0.0
0.3548387096774194 1.0 0.0
0.3870967741935484 1.0 0.0
0.41935483870967744 1.0 0.0
0.45161290322580644 1.0 0.0
0.4838709677419355 1.0 0.0
0.5161290322580645 1.0 0.0
0.5483870967741935 1.0 0.0
0.5806451612903226 1.0 0.0
0.6129032258064516 1.0 0.0
0.6451612903225806 1.0 0.0
0.6774193548387096 1.0 0.0
0.7096774193548387 1.0 0.0
0.7419354838709677 1.0 0.0
0.7741935483870968 1.0 0.0
0.8064516129032258 1.0 0.0
0.8387096774193549 1.0 0.0
0.8709677419354839 1.0 0.0
0.9032258064516129 1.0 0.0
0.9354838709677419 1.0 0.0
0.967741935483871 1.0 0.0
1.0 1.0 0.0
0.0 0.967741935483871 0.0
0.03225806451612903 0.967741935483871 0.0
0.06451612903225806 0.967741935483871 0.0
0.0967741935483871 0.967741935483871 0.0
0.12903225806451613 0.967741935483871 0.0
0.16129032258064516 0.967741935483871 0.0
0.1935483870967742 0.967741935483871 0.0
0.22580645161290322 0.967741935483871 0.0
0.25806451612903225 0.967741935483871 0.0
0.2903225806451613 0.967741935483871 0.0
0.3225806451612903 0.967741935483871 0.0
0.3548387096774194 0.967741935483871 0.0
0.3870967741935484 0.967741935483871 0.0
0.41935483870967744 0.967741935483871 0.0
0.45161290322580644 0.967741935483871 0.0
0.4838709677419355 0.967741935483871 0.0
0.5161290322580645 0.967741935483871 0.0
0.5483870967741935 0.967741935483871 0.0
0.5806451612903226 0.967741935483871 0.0
0.6129032258064516 0.967741935483871 0.0
0.6451612903225806 0.967741935483871 0.0
0.6774193548387096 0.967741935483871 0.0
0.7096774193548387 0.967741935483871 0.0
0.7419354838709677 0.967741935483871 0.0
0.7741935483870968 0.967741935483871 0.0
0.8064516129032258 0.967741935483871 0.0
0.8387096774193549 0.967741935483871 0.0
0.8709677419354839 0.967741935483871 0.0
0.9032258064516129 0.967741935483871 0.0
0.9354838709677419 0.967741935483871 0.0
0.967741935483871 0.967741935483871 0.0
1.0 0.967741935483871 0.0
0.0 0.9354838709677419 0.0
0.03225806451612903 0.9354838709677419 0.0
0.06451612903225806 0.9354838709677419 0.0
0.0967741935483871 0.9354838709677419 0.0
0.12903225806451613 0.9354838709677419 0.0
0.16129032258064516 0.9354838709677419 0.0
0.1935483870967742 0.9354838709677419 0.0
0.22580645161290322 0.9354838709677419 0.0
0.25806451612903225 0.9354838709677419 0.0
0.2903225806451613 0.9354838709677419 0.0
0.3225806451612903 0.9354838709677419 0.0
0.3548387096774194 0.9354838709677419 0.0
0.3870967741935484 0.9354838709677419 0.0
0.41935483870967744 0.9354838709677419 0.0
0.45161290322580644 0.9354838709677419 0.0
0.4838709677419355 0.9354838709677419 0.0
0.5161290322580645 0.9354838709677419 0.0
0.5483870967741935 0.9354838709677419 0.0
0.5806451612903226 0.9354838709677419 0.0
0.6129032258064516 0.9354838709677419 0.0
0.6451612903225806 0.9354838709677419 0.0
0.6774193548387096 0.9354838709677419 0.0
0.7096774193548387 0.9354838709677419 0.0
0.7419354838709677 0.9354838709677419 0.0
0.7741935483870968 0.9354838709677419 0.0
0.8064516129032258 0.9354838709677419 0.0
0.8387096774193549 0.9354838709677419 0.0
0.8709677419354839 0.9354838709677419 0.0
0.9032258064516129 0.9354838709677419 0.0
0.9354838709677419 0.9354838709677419 0.0
0.967741935483871 0.9354838709677419 0.0
1.0 0.9354838709677419 0.0
0.0 0.9032258064516129 0.0
0.03225806451612903 0.9032258064516129 0.0
0.06451612903225806 0.9032258064516129 0.0
0.0967741935483871 0.9032258064516129 0.0
0.12903225806451613 0.9032258064516129 0.0
0.16129032258064516 0.9032258064516129 0.0
0.1935483870967742 0.9032258064516129 0.0
0.22580645161290322 0.9032258064516129 0.0
0.25806451612903225 0.9032258064516129 0.0
0.2903225806451613 0.9032258064516129 0.0
0.3225806451612903 0.9032258064516129 0.0
0.3548387096774194 0.9032258064516129 0.0
0.3870967741935484 0.9032258064516129 0.0
0.41935483870967744 0.9032258064516129 0.0
0.45161290322580644 0.9032258064516129 0.0
0.4838709677419355 0.9032258064516129 0.0
0.5161290322580645 0.9032258064516129 0.0
0.5483870967741935 0.9032258064516129 0.0
0.5806451612903226 0.9032258064516129 0.0
0.6129032258064516 0.9032258064516129 0.0
0.6451612903225806 0.9032258064516129 0.0
0.6774193548387096 0.9032258064516129 0.0
0.7096774193548387 0.9032258064516129 0.0
0.7419354838709677 0.9032258064516129 0.0
0.7741935483870968 0.9032258064516129 0.0
0.8064516129032258 0.9032258064516129 0.0
0.8387096774193549 0.9032258064516129 0.0
0.8709677419354839 0.9032258064516129 0.0
0.9032258064516129 0.9032258064516129 0.0
0.9354838709677419 0.9032258064516129 0.0
0.967741935483871 0.9032258064516129 0.0
1.0 0.9032258064516129 0.0
0.0 0.8709677419354839 0.0
0.03225806451612903 0.8709677419354839 0.0
0.06451612903225806 0.8709677419354839 0.0
0.0967741935483871 0.8709677419354839 0.0
0.12903225806451613 0.8709677419354839 0.0
0.16129032258064516 0.8709677419354839 0.0
0.1935483870967742 0.8709677419354839 0.0
0.22580645161290322 0.8709677419354839 0.0
0.25806451612903225 0.8709677419354839 0.0
0.2903225806451613 0.8709677419354839 0.0
0.3225806451612903 0.8709677419354839 0.0
0.3548387096774194 0.8709677419354839 0.0
0.3870967741935484 0.8709677419354839 0.0
0.41935483870967744 0.8709677419354839 0.0
0.45161290322580644 0.8709677419354839 0.0
0.4838709677419355 0.8709677419354839 0.0
0.5161290322580645 0.8709677419354839 0.0
0.5483870967741935 0.8709677419354839 0.0
0.5806451612903226 0.8709677419354839 0.0
0.6129032258064516 0.8709677419354839 0.0
0.6451612903225806 0.8709677419354839 0.0
0.6774193548387096 0.8709677419354839 0.0
0.7096774193548387 0.8709677419354839 0.0
0.7419354838709677 0.8709677419354839 0.0
0.7741935483870968 0.8709677419354839 0.0
0.8064516129032258 0.8709677419354839 0.0
0.8387096774193549 0.8709677419354839 0.0
0.8709677419354839 0.8709677419354839 0.0
0.9032258064516129 0.8709677419354839 0.0
0.9354838709677419 0.8709677419354839 0.0
0.967741935483871 0.8709677419354839 0.0
1.0 0.8709677419354839 0.0
0.0 0.8387096774193549 0.0
0.03225806451612903 0.8387096774193549 0.0
0.06451612903225806 0.8387096774193549 0.0
0.0967741935483871 0.8387096774193549 0.0
0.12903225806451613 0.8387096774193549 0.0
0.16129032258064516 0.8387096774193549 0.0
0.1935483870967742 0.8387096774193549 0.0
0.22580645161290322 0.8387096774193549 0.0
0.25806451612903225 0.8387096774193549 0.0
0.2903225806451613 0.8387096774193549 0.0
0.3225806451612903 0.8387096774193549 0.0
0.3548387096774194 0.8387096774193549 0.0
0.3870967741935484 0.8387096774193549 0.0
0.41935483870967744 0.8387096774193549 0.0
0.45161290322580644 0.8387096774193549 0.0
0.4838709677419355 0.8387096774193549 0.0
0.5161290322580645 0.8387096774193549 0.0
0.5483870967741935 0.8387096774193549 0.0
0.5806451612903226 0.8387096774193549 0.0
0.6129032258064516 0.8387096774193549 0.0
0.6451612903225806 0.8387096774193549 0.0
0.6774193548387096 0.8387096774193549 0.0
0.7096774193548387 0.8387096774193549 0.0
0.7419354838709677 0.8387096774193549 0.0
0.7741935483870968 0.8387096774193549 0.0
0.8064516129032258 0.8387096774193549 0.0
0.8387096774193549 0.8387096774193549 0.0
0.8709677419354839 0.8387096774193549 0.0
0.9032258064516129 0.8387096774193549 0.0
0.9354838709677419 0.8387096774193549 0.0
0.967741935483871 0.8387096774193549 0.0
1.0 0.8387096774193549 0.0
0.0 0.8064516129032258 0.0
0.03225806451612903 0.8064516129032258 0.0
0.06451612903225806 0.8064516129032258 0.0
0.0967741935483871 0.8064516129032258 0.0
0.12903225806451613 0.8064516129032258 0.0
0.16129032258064516 0.8064516129032258 0.0
0.1935483870967742 0.8064516129032258 0.0
0.22580645161290322 0.8064516129032258 0.0
0.25806451612903225 0.8064516129032258 0.0
0.2903225806451613 0.8064516129032258 0.0
0.3225806451612903 0.8064516129032258 0.0
0.3548387096774194 0.8064516129032258 0.0
0.3870967741935484 0.8064516129032258 0.0
0.41935483870967744 0.8064516129032258 0.0
0.45161290322580644 0.8064516129032258 0.0
0.4838709677419355 0.8064516129032258 0.0
0.5161290322580645 0.8064516129032258 0.0
0.5483870967741935 0.8064516129032258 0.0
0.5806451612903226 0.8064516129032258 0.0
0.6129032258064516 0.8064516129032258 0.0
0.6451612903225806 0.8064516129032258 0.0
0.6774193548387096 0.8064516129032258 0.0
0.7096774193548387 0.8064516129032258 0.0
0.7419354838709677 0.8064516129032258 0.0
0.7741935483870968 0.8064516129032258 0.0
0.8064516129032258 0.8064516129032258 0.0
0.8387096774193549 0.8064516129032258 0.0
0.8709677419354839 0.8064516129032258 0.0
0.9032258064516129 0.8064516129032258 0.0
0.9354838709677419 0.8064516129032258 0.0
0.967741935483871 0.8064516129032258 0.0
1.0 0.8064516129032258 0.0
0.0 0.7741935483870968 0.0
0.03225806451612903 0.7741935483870968 0.0
0.06451612903225806 0.7741935483870968 0.0
0.0967741935483871 0.7741935483870968 0.0
0.12903225806451613 0.7741935483870968 0.0
0.16129032258064516 0.7741935483870968 0.0
0.1935483870967742 0.7741935483870968 0.0
0.22580645161290322 0.7741935483870968 0.0
0.25806451612903225 0.7741935483870968 0.0
0.2903225806451613 0.7741935483870968 0.0
0.3225806451612903 0.7741935483870968 0.0
0.3548387096774194 0.7741935483870968 0.0
0.3870967741935484 0.7741935483870968 0.0
0.41935483870967744 0.7741935483870968 0.0
0.45161290322580644 0.7741935483870968 0.0
0.4838709677419355 0.7741935483870968 0.0
0.5161290322580645 0.7741935483870968 0.0
0.5483870967741935 0.7741935483870968 0.0
0.5806451612903226 0.7741935483870968 0.0
0.6129032258064516 0.7741935483870968 0.0
0.6451612903225806 0.7741935483870968 0.0
0.6774193548387096 0.7741935483870968 0.0
0.7096774193548387 0.7741935483870968 0.0
0.7419354838709677 0.7741935483870968 0.0
0.7741935483870968 0.7741935483870968 0.0
0.8064516129032258 0.7741935483870968 0.0
0.8387096774193549 0.7741935483870968 0.0
0.8709677419354839 0.7741935483870968 0.0
[...]
POINT_DATA 1024
VECTORS NN float
0.013234889507293702 0.013166284561157227 0.0
0.015767329931259157 0.01867471933364868 0.0
0.014994293451309204 0.018761771917343142 0.0
0.014620554447174073 0.017921584844589233 0.0
0.014694887399673463 0.016158008575439455 0.0
0.014620202779769899 0.014327317476272583 0.0
0.014494889974594118 0.012654232978820802 0.0
0.014399421215057374 0.010824221372604371 0.0
0.014211881160736085 0.009605431556701662 0.0
0.013922786712646485 0.00799970030784607 0.0
0.013642841577529909 0.006629514694213867 0.0
0.013330578804016113 0.005058741569519043 0.0
0.01295897364616394 0.0036797940731048587 0.0
0.012546837329864502 0.0024311363697052005 0.0
0.012153655290603638 0.0012528955936431886 0.0
0.01175839900970459 0.00014154911041259767 0.0
0.011351627111434937 -0.0009618163108825684 0.0
0.010955816507339478 -0.0020151197910308837 0.0
0.010578739643096925 -0.002916967868804932 0.0
0.010257583856582642 -0.0037594079971313477 0.0
0.009983551502227784 -0.004626184701919556 0.0
0.009727895259857178 -0.0054083168506622314 0.0
0.009522837400436402 -0.006242424249649048 0.0
0.00934293270111084 -0.007177519798278809 0.0
0.009243232011795045 -0.007961958646774292 0.0
0.009181034564971925 -0.008711063861846923 0.0
0.009108006954193115 -0.009380370378494263 0.0
0.009099018573760987 -0.010128837823867799 0.0
0.008916854858398438 -0.010893696546554567 0.0
0.008627909421920777 -0.011885011196136476 0.0
0.007874739170074464 -0.01235935091972351 0.0
0.0024374604225158693 -0.018464523553848266 0.0
0.018014240264892577 0.030000001192092896 0.0
0.018015742301940918 0.028364872932434084 0.0
0.017965924739837647 0.02668348550796509 0.0
0.01787845492362976 0.02500801682472229 0.0
0.017750561237335205 0.02336438298225403 0.0
0.01759658455848694 0.021730083227157596 0.0
0.017402088642120363 0.020144528150558474 0.0
0.017179685831069946 0.018574303388595583 0.0
0.01692624092102051 0.017059439420700075 0.0
0.01664506196975708 0.015595263242721558 0.0
0.016343402862548827 0.01418297290802002 0.0
0.016006839275360108 0.01280643939971924 0.0
0.015658032894134522 0.01150065064430237 0.0
0.015283042192459108 0.010273861885070802 0.0
0.014906179904937745 0.009116113185882568 0.0
0.014518034458160401 0.008045953512191773 0.0
0.014141619205474854 0.007034862041473389 0.0
0.01377984881401062 0.006101286411285401 0.0
0.01343567967414856 0.005222034454345704 0.0
0.013124543428421022 0.004394835233688355 0.0
0.012835216522216798 0.0036223530769348145 0.0
0.012582236528396608 0.002890121936798096 0.0
0.012351292371749879 0.0021853506565093993 0.0
0.012169063091278076 0.0015077531337738038 0.0
0.012017261981964112 0.0008416175842285156 0.0
0.011891192197799683 0.0001957237720489502 0.0
0.011794048547744752 -0.0004469990730285645 0.0
0.011728215217590333 -0.001080077886581421 0.0
0.011677569150924683 -0.0017372071743011475 0.0
0.011630982160568237 -0.0023916840553283693 0.0
0.011589217185974122 -0.003009891510009766 0.0
0.0039349555969238285 -0.012233304977416993 0.0
0.01639666557312012 0.030000001192092896 0.0
0.016384345293045045 0.028345328569412232 0.0
0.016335725784301758 0.026656126976013186 0.0
0.016260004043579104 0.024970924854278567 0.0
0.016161048412323 0.02330869436264038 0.0
0.016028374433517456 0.021665537357330324 0.0
0.015869140625 0.020058202743530276 0.0
0.01568204760551453 0.018483680486679078 0.0
0.01547226905822754 0.016951751708984376 0.0
0.015237373113632203 0.015476685762405396 0.0
0.014972639083862305 0.014049369096755982 0.0
0.0146961510181427 0.012671881914138795 0.0
0.014404988288879395 0.011365002393722535 0.0
0.014103984832763672 0.010128164291381837 0.0
0.013788700103759766 0.008969837427139282 0.0
0.013473862409591676 0.007893103361129762 0.0
0.013160109519958496 0.006891328096389771 0.0
0.012858206033706666 0.0059597790241241455 0.0
0.012572944164276123 0.005088073015213013 0.0
0.012305301427841187 0.0042724609375 0.0
0.01206268072128296 0.0035095155239105225 0.0
0.011841565370559692 0.002783489227294922 0.0
0.011648643016815187 0.0020962953567504883 0.0
0.011481863260269166 0.0014376282691955567 0.0
0.011346215009689332 0.0007881760597229005 0.0
0.011236536502838136 0.0001458108425140381 0.0
0.011148041486740113 -0.0004813671112060547 0.0
0.01107921600341797 -0.0011091351509094239 0.0
0.011032521724700928 -0.0017574191093444826 0.0
0.011001408100128174 -0.002407234907150269 0.0
0.010981047153472902 -0.0030501723289489747 0.0
0.003929764032363892 -0.014583486318588258 0.0
0.014843928813934327 0.030000001192092896 0.0
0.014836353063583375 0.028329026699066163 0.0
0.014790707826614381 0.026635748147964478 0.0
0.014728343486785889 0.024938476085662842 0.0
0.01464376449584961 0.023266452550888064 0.0
0.01453654170036316 0.021607208251953128 0.0
0.014403200149536133 0.01999002695083618 0.0
0.014246499538421631 0.018406009674072268 0.0
0.014077728986740113 0.016865241527557372 0.0
0.013885074853897096 0.015375876426696779 0.0
0.013669896125793458 0.013939756155014039 0.0
0.013439208269119263 0.012559574842453004 0.0
0.013197261095046998 0.011249756813049317 0.0
0.012946313619613648 0.010008198022842408 0.0
0.0126867413520813 0.008841770887374879 0.0
0.012424051761627197 0.0077660799026489265 0.0
0.012162786722183228 0.006767439842224121 0.0
0.011908340454101564 0.00583605170249939 0.0
0.011667495965957642 0.004973274469375611 0.0
0.011444681882858278 0.004162436723709107 0.0
0.011238431930541993 0.003408193588256836 0.0
0.0110532283782959 0.0026930987834930423 0.0
0.010890579223632813 0.0020140111446380615 0.0
0.010749369859695435 0.001363062858581543 0.0
0.010626608133316041 0.0007348239421844483 0.0
0.010527753829956056 0.00010588169097900391 0.0
0.010452109575271607 -0.0005153357982635498 0.0
0.010396140813827516 -0.0011365950107574464 0.0
0.010354453325271608 -0.0017750859260559082 0.0
0.010328084230422974 -0.002421700954437256 0.0
0.010301417112350464 -0.003089404106140137 0.0
0.0037154197692871095 -0.014631342887878419 0.0
0.01334485411643982 0.030000001192092896 0.0
0.013343417644500734 0.028320747613906863 0.0
0.013311934471130372 0.02661426663398743 0.0
0.013256931304931642 0.024912363290786745 0.0
0.013189756870269777 0.023227560520172122 0.0
0.013104242086410523 0.021561598777770998 0.0
0.013000714778900148 0.019931358098983765 0.0
0.01287553906440735 0.018340235948562624 0.0
0.012733370065689087 0.016793131828308105 0.0
0.012577736377716066 0.015294098854064943 0.0
0.012402522563934327 0.013845491409301759 0.0
0.012216567993164062 0.012462067604064942 0.0
0.012014687061309814 0.011145704984664918 0.0
0.011805999279022218 0.009902292490005495 0.0
0.01159546971321106 0.00873180627822876 0.0
0.011381387710571289 0.007653194665908814 0.0
0.011165106296539308 0.006650680303573609 0.0
0.01095489263534546 0.005725097656250001 0.0
0.010751014947891236 0.004866963624954224 0.0
0.010560810565948486 0.00406600832939148 0.0
0.01038476824760437 0.003315836191177368 0.0
0.010230338573455811 0.00261421799659729 0.0
0.01009238362312317 0.001942896842956543 0.0
0.009972810745239258 0.0013019979000091554 0.0
0.009869694709777832 0.000684189796447754 0.0
0.009787046909332277 7.154941558837891e-05 0.0
0.00972294807434082 -0.0005396485328674317 0.0
0.009675973653793336 -0.0011522293090820313 0.0
0.009642958641052246 -0.001788163185119629 0.0
0.009618186950683595 -0.0024387896060943607 0.0
0.00959860682487488 -0.0031230330467224123 0.0
0.0030744194984436038 -0.014937901496887208 0.0
0.011902797222137452 0.030000001192092896 0.0
0.011906528472900392 0.028316181898117066 0.0
0.011876773834228516 0.026594603061676027 0.0
0.011839842796325684 0.024893230199813845 0.0
0.011782854795455933 0.02319369912147522 0.0
0.011720436811447145 0.02152608633041382 0.0
0.011640632152557374 0.019884449243545533 0.0
0.011546659469604493 0.018282824754714967 0.0
0.011435180902481079 0.016726982593536378 0.0
0.011307811737060547 0.01522168517112732 0.0
0.011175215244293213 0.013765782117843628 0.0
0.011025547981262207 0.012374013662338257 0.0
0.010864651203155518 0.011050653457641602 0.0
0.010695189237594604 0.009803622961044312 0.0
0.010522663593292236 0.008634740114212036 0.0
0.010344243049621582 0.007545244693756104 0.0
0.010164934396743775 0.006542766094207764 0.0
0.009984987974166871 0.005620682239532471 0.0
0.009814459085464479 0.004765242338180542 0.0
0.009652596712112427 0.003970927000045777 0.0
0.009508293867111207 0.0032311618328094483 0.0
0.009380996227264404 0.002539050579071045 0.0
0.009265059232711792 0.001880401372909546 0.0
0.009165459871292114 0.0012496173381805421 0.0
0.009081828594207765 0.0006442010402679444 0.0
0.009014832973480226 4.6193599700927734e-05 0.0
0.008965647220611573 -0.0005555212497711182 0.0
0.008931303024291992 -0.0011640965938568115 0.0
0.008904564380645753 -0.0017941415309906006 0.0
0.008886981010437013 -0.0024478375911712647 0.0
0.008868998289108277 -0.0031449198722839355 0.0
0.0025236427783966067 -0.014899075031280518 0.0
0.01050553321838379 0.030000001192092896 0.0
0.010501581430435182 0.02830626964569092 0.0
0.010482609272003174 0.026586496829986574 0.0
0.010452824831008912 0.02487248182296753 0.0
0.010417968034744263 0.023170340061187747 0.0
0.010368841886520387 0.02149641513824463 0.0
0.010316801071166993 0.01984815001487732 0.0
0.010248690843582153 0.018236035108566286 0.0
0.01016993522644043 0.016672575473785402 0.0
0.010077482461929322 0.015156298875808716 0.0
0.009971332550048829 0.013692975044250488 0.0
0.009857600927352906 0.012295210361480714 0.0
0.009733629226684571 0.010961973667144777 0.0
0.009599745273590088 0.009709662199020386 0.0
0.009457480907440186 0.00853380560874939 0.0
0.009308576583862305 0.007440942525863648 0.0
0.009162884950637818 0.006436598300933839 0.0
0.009016400575637818 0.005514693260192872 0.0
0.008874136209487916 0.0046672821044921875 0.0
0.008742642402648926 0.0038770079612731934 0.0
0.008623290061950685 0.003149288892745972 0.0
0.008515995740890504 0.0024687528610229494 0.0
0.008423477411270142 0.0018220007419586183 0.0
0.008346188068389894 0.0012047111988067627 0.0
0.0082830548286438 0.0006147861480712891 0.0
0.008228069543838501 2.2369623184204102e-05 0.0
0.008187377452850341 -0.0005638182163238526 0.0
0.00816171169281006 -0.0011681318283081055 0.0
0.00814521312713623 -0.0017886340618133547 0.0
0.00813700556755066 -0.0024438738822937013 0.0
0.008130353689193726 -0.003152120113372803 0.0
0.0019729018211364748 -0.014743876457214356 0.0
0.009121346473693849 0.030000001192092896 0.0
0.00912935733795166 0.028300195932388306 0.0
0.0091128408908844 0.02657812237739563 0.0
0.009094268083572388 0.024859732389450075 0.0
0.009068751335144043 0.02315461039543152 0.0
0.009042692184448243 0.021472930908203125 0.0
0.009012055397033692 0.019825059175491336 0.0
0.008976006507873535 0.018198418617248534 0.0
0.008924257755279542 0.01662571430206299 0.0
0.008864361047744752 0.015102756023406983 0.0
0.008795708417892456 0.01363033652305603 0.0
0.00871114730834961 0.01221800446510315 0.0
0.008619755506515503 0.010878008604049683 0.0
0.008513891696929931 0.00961529016494751 0.0
0.008404093980789186 0.008430558443069459 0.0
0.008286947011947631 0.00733446478843689 0.0
0.008163130283355713 0.00632929801940918 0.0
0.00804448127746582 0.005409204959869385 0.0
0.007930809259414673 0.004565495252609253 0.0
0.007827472686767579 0.0037892162799835205 0.0
0.007732200622558594 0.0030677139759063723 0.0
0.00764695405960083 0.0023991763591766357 0.0
0.007575851678848267 0.0017694115638732912 0.0
0.007516437768936158 0.0011668264865875245 0.0
0.007465451955795288 0.0005854606628417969 0.0
0.007428777217864991 9.459257125854493e-06 0.0
0.007399982213973999 -0.0005691945552825928 0.0
0.007383358478546143 -0.0011582314968109132 0.0
0.0073730707168579105 -0.0017724871635437013 0.0
0.007372856140136719 -0.002422565221786499 0.0
0.007374870777130127 -0.0031374990940093994 0.0
0.001473069190979004 -0.014903366565704346 0.0
0.007764387130737305 0.030000001192092896 0.0
0.007763850688934326 0.028298026323318484 0.0
0.007755500078201295 0.02657044529914856 0.0
0.007747972011566163 0.02484971284866333 0.0
0.007740116119384766 0.02314056754112244 0.0
0.007730263471603394 0.021460002660751345 0.0
0.0077210783958435066 0.01980304718017578 0.0
0.0077082753181457525 0.018175768852233886 0.0
0.007695621252059937 0.016595393419265747 0.0
0.007669925689697266 0.015051990747451782 0.0
0.007630443572998047 0.013569575548171998 0.0
0.007577985525131226 0.012144857645034791 0.0
0.007513689994812012 0.010792297124862672 0.0
0.007445240020751954 0.009512585401535035 0.0
0.007356953620910645 0.0083243727684021 0.0
0.007264375686645508 0.007223653793334961 0.0
0.007170867919921876 0.00621795654296875 0.0
0.007073622941970826 0.005301666259765626 0.0
0.0069853425025939945 0.004463613033294678 0.0
0.00690755844116211 0.003698205947875977 0.0
0.00683826208114624 0.002987581491470337 0.0
0.00677369236946106 0.0023350417613983154 0.0
0.006724053621292115 0.0017236530780792238 0.0
0.0066848576068878176 0.0011332333087921143 0.0
0.006647968292236329 0.000564950704574585 0.0
0.006623172760009766 8.761882781982423e-07 0.0
0.006608045101165772 -0.0005601525306701661 0.0
0.006603598594665527 -0.0011397242546081544 0.0
0.0066027998924255375 -0.0017445147037506105 0.0
0.006606972217559815 -0.002387320995330811 0.0
0.006617528200149537 -0.003090155124664307 0.0
0.0008633136749267578 -0.014876151084899904 0.0
0.006381410360336304 0.030000001192092896 0.0
0.006389153003692628 0.02829459309577942 0.0
0.0063910365104675295 0.02656657099723816 0.0
0.006397968530654908 0.02485198974609375 0.0
0.006407618522644043 0.023137599229812622 0.0
0.006421834230422974 0.021452236175537112 0.0
0.006434780359268189 0.01979597806930542 0.0
0.00645054578781128 0.01816321611404419 0.0
0.006462550163269043 0.016573947668075562 0.0
0.006472736597061157 0.01501951813697815 0.0
0.006471741199493408 0.013512665033340455 0.0
0.006457382440567017 0.012076371908187868 0.0
0.006428325176239014 0.010705620050430298 0.0
0.006385517120361329 0.009411954879760744 0.0
0.006330370903015137 0.008206367492675781 0.0
0.0062613308429718025 0.0071028172969818115 0.0
0.00618695616722107 0.006099122762680054 0.0
0.006116271018981934 0.005186194181442261 0.0
0.006052613258361816 0.00435979962348938 0.0
0.005996686220169068 0.003608018159866333 0.0
0.0059506893157958984 0.002910834550857544 0.0
0.005909448862075806 0.0022760331630706787 0.0
0.005875712633132935 0.0016803085803985597 0.0
0.005851459503173829 0.001107388734817505 0.0
0.005833768844604493 0.0005486488342285157 0.0
0.005825954675674439 7.563829421997071e-06 0.0
0.005827105045318604 -0.0005444526672363281 0.0
0.005835074186325073 -0.0011114895343780518 0.0
0.005841630697250366 -0.0017026126384735109 0.0
0.005856835842132569 -0.0023314416408538817 0.0
0.005881667137145996 -0.003019833564758301 0.0
0.0003546833992004395 -0.014940971136093141 0.0
0.0049930870532989505 0.030000001192092896 0.0
0.005014914274215698 0.028296929597854615 0.0
0.005024659633636475 0.02657126784324646 0.0
0.005044043064117432 0.024854284524917603 0.0
0.005066406726837159 0.023145973682403564 0.0
0.005103588104248047 0.021461093425750734 0.0
0.00514366626739502 0.01979888677597046 0.0
0.005188971757888794 0.018166667222976687 0.0
0.005233204364776612 0.01656253933906555 0.0
0.005273741483688355 0.01499651074409485 0.0
0.005308020114898682 0.013475412130355836 0.0
0.005336797237396241 0.012014973163604737 0.0
0.005345624685287476 0.01062227487564087 0.0
0.005333930253982544 0.009302282333374023 0.0
0.005307936668395997 0.008086347579956054 0.0
0.005268168449401856 0.006969332695007324 0.0
0.005222094058990479 0.005969202518463135 0.0
0.005176621675491333 0.0050662517547607425 0.0
0.0051393270492553714 0.004251891374588013 0.0
0.005107802152633668 0.003516650199890137 0.0
0.005081629753112793 0.0028357744216918946 0.0
0.005061089992523193 0.002215808629989624 0.0
0.005046284198760987 0.001643538475036621 0.0
0.005039989948272705 0.001085209846496582 0.0
0.005038809776306153 0.0005432724952697754 0.0
0.0050469756126403816 1.6868114471435547e-05 0.0
0.0050601959228515625 -0.0005150854587554932 0.0
0.005075788497924805 -0.001069629192352295 0.0
0.0050986289978027345 -0.0016446948051452638 0.0
0.0051234841346740724 -0.002255159616470337 0.0
0.005156964063644409 -0.002923816442489624 0.0
-0.00021391510963439942 -0.014846870303153993 0.0
0.003601306676864624 0.030000001192092896 0.0
0.0036162137985229492 0.02830517888069153 0.0
0.003637206554412842 0.026581746339797974 0.0
0.003666752576828003 0.024865442514419557 0.0
0.0037103414535522464 0.023163944482803345 0.0
0.003763854503631592 0.021481090784072877 0.0
0.003827762603759766 0.019816416501998904 0.0
0.003903210163116455 0.018183749914169312 0.0
0.0039821982383728026 0.016566741466522216 0.0
0.004069465398788452 0.014991605281829835 0.0
0.004148119688034058 0.013452720642089844 0.0
0.004217624664306641 0.0119695782661438 0.0
0.004273790121078491 0.010542774200439455 0.0
0.004307436943054199 0.009193682670593261 0.0
0.004310977458953857 0.007949239015579224 0.0
0.004296922683715821 0.006826972961425782 0.0
0.004277992248535156 0.005828195810317994 0.0
0.004259473085403443 0.0049333214759826665 0.0
0.004244095087051392 0.004139947891235352 0.0
0.004238390922546387 0.003423041105270386 0.0
0.004235804080963135 0.0027616679668426517 0.0
0.004237747192382813 0.002163386344909668 0.0
0.004243302345275879 0.0016053497791290285 0.0
0.004255819320678711 0.0010702788829803466 0.0
0.004275596141815186 0.0005496025085449219 0.0
0.00429922342300415 4.0417909622192384e-05 0.0
0.004319882392883301 -0.00047878026962280276 0.0
0.004347789287567139 -0.0010122537612915039 0.0
0.004378306865692139 -0.001568502187728882 0.0
0.004414510726928711 -0.0021594345569610597 0.0
0.004455059766769409 -0.002808099985122681 0.0
-0.000720059871673584 -0.014848878979682923 0.0
0.0021815776824951174 0.030000001192092896 0.0
0.002201509475708008 0.028315609693527224 0.0
0.0022251248359680177 0.0265943706035614 0.0
0.002265089750289917 0.024890124797821045 0.0
0.002322816848754883 0.023191511631011963 0.0
0.0023972809314727786 0.02151181697845459 0.0
0.0024887442588806155 0.019848501682281496 0.0
0.002592289447784424 0.018215042352676392 0.0
0.00270763635635376 0.016593807935714723 0.0
0.002833342552185059 0.015008550882339478 0.0
0.0029701471328735353 0.013454663753509523 0.0
0.003099167346954346 0.011940497159957887 0.0
0.003207087516784668 0.01047632098197937 0.0
0.0032864809036254883 0.009081816673278809 0.0
0.003330272436141968 0.00780254602432251 0.0
0.0033503890037536624 0.006669002771377564 0.0
0.0033588469028472904 0.005671000480651856 0.0
0.0033664464950561527 0.00479537844657898 0.0
0.003380650281906128 0.004020947217941284 0.0
0.0033970952033996584 0.0033258795738220215 0.0
0.0034206271171569828 0.002692002058029175 0.0
0.0034503042697906494 0.002110373973846436 0.0
0.0034775257110595706 0.0015779972076416016 0.0
0.0035088717937469486 0.0010583102703094482 0.0
0.0035410404205322267 0.0005601584911346435 0.0
0.0035734355449676515 6.740093231201172e-05 0.0
0.003608214855194092 -0.0004303693771362305 0.0
0.0036435484886169437 -0.0009429693222045899 0.0
0.0036794841289520264 -0.0014796614646911622 0.0
0.003722643852233887 -0.002044081687927246 0.0
0.0037780702114105225 -0.0026670634746551515 0.0
-0.0012539267539978028 -0.014740449190139771 0.0
0.0007312834262847901 0.030000001192092896 0.0
0.0007483780384063721 0.02832520604133606 0.0
0.0007772147655487061 0.02661372423171997 0.0
0.0008280754089355469 0.024916940927505495 0.0
0.0008961856365203857 0.023227679729461673 0.0
0.000987541675567627 0.021552312374114993 0.0
0.0011035919189453125 0.01989935636520386 0.0
0.0012361884117126467 0.018260520696640015 0.0
0.0013905882835388184 0.016642838716506958 0.0
0.0015644609928131105 0.015052050352096558 0.0
0.001745516061782837 0.01348429322242737 0.0
0.0019348323345184327 0.011943703889846802 0.0
0.002122396230697632 0.010429853200912477 0.0
0.002268779277801514 0.008980751037597656 0.0
0.0023700654506683353 0.007646095752716065 0.0