# vtk DataFile Version 3.0
#This file was generated by the deal.II library on 2021/1/5 at 13:55:19
ASCII
DATASET UNSTRUCTURED_GRID

POINTS 2700 double
0.0322581 0.516129 0
0 0.516129 0
0.0322581 0.483871 0
0 0.483871 0
0.0322581 0.548387 0
0 0.548387 0
0.0322581 0.516129 0
0 0.516129 0
0.0322581 0.580645 0
0 0.580645 0
0.0322581 0.548387 0
0 0.548387 0
0.0322581 0.612903 0
0 0.612903 0
0.0322581 0.580645 0
0 0.580645 0
0.0322581 0.645161 0
0 0.645161 0
0.0322581 0.612903 0
0 0.612903 0
0.0322581 0.677419 0
0 0.677419 0
0.0322581 0.645161 0
0 0.645161 0
0.0322581 0.709677 0
0 0.709677 0
0.0322581 0.677419 0
0 0.677419 0
0.0322581 0.741935 0
0 0.741935 0
0.0322581 0.709677 0
0 0.709677 0
0.0322581 0.774193 0
0 0.774193 0
0.0322581 0.741935 0
0 0.741935 0
0.0322581 0.806452 0
0 0.806452 0
0.0322581 0.774193 0
0 0.774193 0
0.0322581 0.83871 0
0 0.83871 0
0.0322581 0.806452 0
0 0.806452 0
0.0322581 0.870968 0
0 0.870968 0
0.0322581 0.83871 0
0 0.83871 0
0.0322581 0.903226 0
0 0.903226 0
0.0322581 0.870968 0
0 0.870968 0
0.0322581 0.935484 0
0 0.935484 0
0.0322581 0.903226 0
0 0.903226 0
0.0322581 0.967742 0
0 0.967742 0
0.0322581 0.935484 0
0 0.935484 0
0.0645161 0.516129 0
0.0322581 0.516129 0
0.0645161 0.483871 0
0.0322581 0.483871 0
0.0645161 0.548387 0
0.0322581 0.548387 0
0.0645161 0.516129 0
0.0322581 0.516129 0
0.0645161 0.580645 0
0.0322581 0.580645 0
0.0645161 0.548387 0
0.0322581 0.548387 0
0.0645161 0.612903 0
0.0322581 0.612903 0
0.0645161 0.580645 0
0.0322581 0.580645 0
0.0645161 0.645161 0
0.0322581 0.645161 0
0.0645161 0.612903 0
0.0322581 0.612903 0
0.0645161 0.677419 0
0.0322581 0.677419 0
0.0645161 0.645161 0
0.0322581 0.645161 0
0.0645161 0.709677 0
0.0322581 0.709677 0
0.0645161 0.677419 0
0.0322581 0.677419 0
0.0645161 0.741935 0
0.0322581 0.741935 0
0.0645161 0.709677 0
0.0322581 0.709677 0
0.0645161 0.774193 0
0.0322581 0.774193 0
0.0645161 0.741935 0
0.0322581 0.741935 0
0.0645161 0.806452 0
0.0322581 0.806452 0
0.0645161 0.774193 0
0.0322581 0.774193 0
0.0645161 0.83871 0
0.0322581 0.83871 0
0.0645161 0.806452 0
0.0322581 0.806452 0
0.0645161 0.870968 0
0.0322581 0.870968 0
0.0645161 0.83871 0
0.0322581 0.83871 0
0.0645161 0.903226 0
0.0322581 0.903226 0
0.0645161 0.870968 0
0.0322581 0.870968 0
0.0645161 0.935484 0
0.0322581 0.935484 0
0.0645161 0.903226 0
0.0322581 0.903226 0
0.0645161 0.967742 0
0.0322581 0.967742 0
0.0645161 0.935484 0
0.0322581 0.935484 0
0.0967742 0.516129 0
0.0645161 0.516129 0
0.0967742 0.483871 0
0.0645161 0.483871 0
0.0967742 0.548387 0
0.0645161 0.548387 0
0.0967742 0.516129 0
0.0645161 0.516129 0
0.0967742 0.580645 0
0.0645161 0.580645 0
0.0967742 0.548387 0
0.0645161 0.548387 0
0.0967742 0.612903 0
0.0645161 0.612903 0
0.0967742 0.580645 0
0.0645161 0.580645 0
0.0967742 0.645161 0
0.0645161 0.645161 0
0.0967742 0.612903 0
0.0645161 0.612903 0
0.0967742 0.677419 0
0.0645161 0.677419 0
0.0967742 0.645161 0
0.0645161 0.645161 0
0.0967742 0.709677 0
0.0645161 0.709677 0
0.0967742 0.677419 0
0.0645161 0.677419 0
0.0967742 0.741935 0
0.0645161 0.741935 0
0.0967742 0.709677 0
0.0645161 0.709677 0
0.0967742 0.774193 0
0.0645161 0.774193 0
0.0967742 0.741935 0
0.0645161 0.741935 0
0.0967742 0.806452 0
0.0645161 0.806452 0
0.0967742 0.774193 0
0.0645161 0.774193 0
0.0967742 0.83871 0
0.0645161 0.83871 0
0.0967742 0.806452 0
0.0645161 0.806452 0
0.0967742 0.870968 0
0.0645161 0.870968 0
0.0967742 0.83871 0
0.0645161 0.83871 0
0.0967742 0.903226 0
0.0645161 0.903226 0
0.0967742 0.870968 0
0.0645161 0.870968 0
0.0967742 0.935484 0
0.0645161 0.935484 0
0.0967742 0.903226 0
0.0645161 0.903226 0
0.0967742 0.967742 0
0.0645161 0.967742 0
0.0967742 0.935484 0
0.0645161 0.935484 0
0.129032 0.516129 0
0.0967742 0.516129 0
0.129032 0.483871 0
0.0967742 0.483871 0
0.129032 0.548387 0
0.0967742 0.548387 0
0.129032 0.516129 0
0.0967742 0.516129 0
0.129032 0.580645 0
0.0967742 0.580645 0
0.129032 0.548387 0
0.0967742 0.548387 0
0.129032 0.612903 0
0.0967742 0.612903 0
0.129032 0.580645 0
0.0967742 0.580645 0
0.129032 0.645161 0
0.0967742 0.645161 0
0.129032 0.612903 0
0.0967742 0.612903 0
0.129032 0.677419 0
0.0967742 0.677419 0
0.129032 0.645161 0
0.0967742 0.645161 0
0.129032 0.709677 0
0.0967742 0.709677 0
0.129032 0.677419 0
0.0967742 0.677419 0
0.129032 0.741935 0
0.0967742 0.741935 0
0.129032 0.709677 0
0.0967742 0.709677 0
0.129032 0.774193 0
0.0967742 0.774193 0
0.129032 0.741935 0
0.0967742 0.741935 0
0.129032 0.806452 0
0.0967742 0.806452 0
0.129032 0.774193 0
0.0967742 0.774193 0
0.129032 0.83871 0
0.0967742 0.83871 0
0.129032 0.806452 0
0.0967742 0.806452 0
0.129032 0.870968 0
0.0967742 0.870968 0
0.129032 0.83871 0
0.0967742 0.83871 0
0.129032 0.903226 0
0.0967742 0.903226 0
0.129032 0.870968 0
0.0967742 0.870968 0
0.129032 0.935484 0
0.0967742 0.935484 0
0.129032 0.903226 0
0.0967742 0.903226 0
0.129032 0.967742 0
0.0967742 0.967742 0
0.129032 0.935484 0
0.0967742 0.935484 0
0.16129 0.516129 0
0.129032 0.516129 0
0.16129 0.483871 0
0.129032 0.483871 0
0.16129 0.548387 0
0.129032 0.548387 0
0.16129 0.516129 0
0.129032 0.516129 0
0.16129 0.580645 0
0.129032 0.580645 0
0.16129 0.548387 0
0.129032 0.548387 0
0.16129 0.612903 0
0.129032 0.612903 0
0.16129 0.580645 0
0.129032 0.580645 0
0.16129 0.645161 0
0.129032 0.645161 0
0.16129 0.612903 0
0.129032 0.612903 0
0.16129 0.677419 0
0.129032 0.677419 0
0.16129 0.645161 0
0.129032 0.645161 0
0.16129 0.709677 0
0.129032 0.709677 0
0.16129 0.677419 0
0.129032 0.677419 0
0.16129 0.741935 0
0.129032 0.741935 0
0.16129 0.709677 0
0.129032 0.709677 0
0.16129 0.774193 0
0.129032 0.774193 0
0.16129 0.741935 0
0.129032 0.741935 0
0.16129 0.806452 0
0.129032 0.806452 0
0.16129 0.774193 0
0.129032 0.774193 0
0.16129 0.83871 0
0.129032 0.83871 0
0.16129 0.806452 0
0.129032 0.806452 0
0.16129 0.870968 0
0.129032 0.870968 0
0.16129 0.83871 0
0.129032 0.83871 0
0.16129 0.903226 0
0.129032 0.903226 0
0.16129 0.870968 0
0.129032 0.870968 0
0.16129 0.935484 0
0.129032 0.935484 0
0.16129 0.903226 0
0.129032 0.903226 0
0.16129 0.967742 0
0.129032 0.967742 0
0.16129 0.935484 0
0.129032 0.935484 0
0.193548 0.516129 0
0.16129 0.516129 0
0.193548 0.483871 0
0.16129 0.483871 0
0.193548 0.548387 0
0.16129 0.548387 0
0.193548 0.516129 0
0.16129 0.516129 0
0.193548 0.580645 0
0.16129 0.580645 0
0.193548 0.548387 0
0.16129 0.548387 0
0.193548 0.612903 0
0.16129 0.612903 0
0.193548 0.580645 0
0.16129 0.580645 0
0.193548 0.645161 0
0.16129 0.645161 0
0.193548 0.612903 0
0.16129 0.612903 0
0.193548 0.677419 0
0.16129 0.677419 0
0.193548 0.645161 0
0.16129 0.645161 0
0.193548 0.709677 0
0.16129 0.709677 0
0.193548 0.677419 0
0.16129 0.677419 0
0.193548 0.741935 0
0.16129 0.741935 0
0.193548 0.709677 0
0.16129 0.709677 0
0.193548 0.774193 0
0.16129 0.774193 0
0.193548 0.741935 0
0.16129 0.741935 0
0.193548 0.806452 0
0.16129 0.806452 0
0.193548 0.774193 0
0.16129 0.774193 0
0.193548 0.83871 0
0.16129 0.83871 0
0.193548 0.806452 0
0.16129 0.806452 0
0.193548 0.870968 0
0.16129 0.870968 0
0.193548 0.83871 0
0.16129 0.83871 0
0.193548 0.903226 0
0.16129 0.903226 0
0.193548 0.870968 0
0.16129 0.870968 0
0.193548 0.935484 0
0.16129 0.935484 0
0.193548 0.903226 0
0.16129 0.903226 0
0.193548 0.967742 0
0.16129 0.967742 0
0.193548 0.935484 0
0.16129 0.935484 0
0.225806 0.516129 0
0.193548 0.516129 0
0.225806 0.483871 0
0.193548 0.483871 0
0.225806 0.548387 0
0.193548 0.548387 0
0.225806 0.516129 0
0.193548 0.516129 0
0.225806 0.580645 0
0.193548 0.580645 0
0.225806 0.548387 0
0.193548 0.548387 0
0.225806 0.612903 0
0.193548 0.612903 0
0.225806 0.580645 0
0.193548 0.580645 0
0.225806 0.645161 0
0.193548 0.645161 0
0.225806 0.612903 0
0.193548 0.612903 0
0.225806 0.677419 0
0.193548 0.677419 0
0.225806 0.645161 0
0.193548 0.645161 0
0.225806 0.709677 0
0.193548 0.709677 0
0.225806 0.677419 0
0.193548 0.677419 0
0.225806 0.741935 0
0.193548 0.741935 0
0.225806 0.709677 0
0.193548 0.709677 0
0.225806 0.774193 0
0.193548 0.774193 0
0.225806 0.741935 0
0.193548 0.741935 0
0.225806 0.806452 0
0.193548 0.806452 0
0.225806 0.774193 0
0.193548 0.774193 0
0.225806 0.83871 0
0.193548 0.83871 0
0.225806 0.806452 0
0.193548 0.806452 0
0.225806 0.870968 0
0.193548 0.870968 0
0.225806 0.83871 0
0.193548 0.83871 0
0.225806 0.903226 0
0.193548 0.903226 0
0.225806 0.870968 0
0.193548 0.870968 0
0.225806 0.935484 0
0.193548 0.935484 0
0.225806 0.903226 0
0.193548 0.903226 0
0.225806 0.967742 0
0.193548 0.967742 0
0.225806 0.935484 0
0.193548 0.935484 0
0.258064 0.516129 0
0.225806 0.516129 0
0.258064 0.483871 0
0.225806 0.483871 0
0.258064 0.548387 0
0.225806 0.548387 0
0.258064 0.516129 0
0.225806 0.516129 0
0.258064 0.580645 0
0.225806 0.580645 0
0.258064 0.548387 0
0.225806 0.548387 0
0.258064 0.612903 0
0.225806 0.612903 0
0.258064 0.580645 0
0.225806 0.580645 0
0.258064 0.645161 0
0.225806 0.645161 0
0.258064 0.612903 0
0.225806 0.612903 0
0.258064 0.677419 0
0.225806 0.677419 0
0.258064 0.645161 0
0.225806 0.645161 0
0.258064 0.709677 0
0.225806 0.709677 0
0.258064 0.677419 0
0.225806 0.677419 0
0.258064 0.741935 0
0.225806 0.741935 0
0.258064 0.709677 0
0.225806 0.709677 0
0.258064 0.774193 0
0.225806 0.774193 0
0.258064 0.741935 0
0.225806 0.741935 0
0.258064 0.806452 0
0.225806 0.806452 0
0.258064 0.774193 0
0.225806 0.774193 0
0.258064 0.83871 0
0.225806 0.83871 0
0.258064 0.806452 0
0.225806 0.806452 0
0.258064 0.870968 0
0.225806 0.870968 0
0.258064 0.83871 0
0.225806 0.83871 0
0.258064 0.903226 0
0.225806 0.903226 0
0.258064 0.870968 0
0.225806 0.870968 0
0.258064 0.935484 0
0.225806 0.935484 0
0.258064 0.903226 0
0.225806 0.903226 0
0.258064 0.967742 0
0.225806 0.967742 0
0.258064 0.935484 0
0.225806 0.935484 0
0.290323 0.516129 0
0.258064 0.516129 0
0.290323 0.483871 0
0.258064 0.483871 0
0.290323 0.548387 0
0.258064 0.548387 0
0.290323 0.516129 0
0.258064 0.516129 0
0.290323 0.580645 0
0.258064 0.580645 0
0.290323 0.548387 0
0.258064 0.548387 0
0.290323 0.612903 0
0.258064 0.612903 0
0.290323 0.580645 0
0.258064 0.580645 0
0.290323 0.645161 0
0.258064 0.645161 0
[...]
POINT_DATA 2700
VECTORS u double
0.00594612 0.0379357 0
0.00593716 0.04 0
0.00391461 0.0379439 0
0.00390448 0.04 0
0.00793424 0.0379284 0
0.00792639 0.04 0
0.00594612 0.0379357 0
0.00593716 0.04 0
0.00988455 0.037922 0
0.00987784 0.04 0
0.00793424 0.0379284 0
0.00792639 0.04 0
0.0118027 0.0379165 0
0.0117972 0.04 0
0.00988455 0.037922 0
0.00987784 0.04 0
0.0136947 0.0379121 0
0.0136904 0.04 0
0.0118027 0.0379165 0
0.0117972 0.04 0
0.0155667 0.0379088 0
0.0155638 0.04 0
0.0136947 0.0379121 0
0.0136904 0.04 0
0.0174253 0.0379067 0
0.0174239 0.04 0
0.0155667 0.0379088 0
0.0155638 0.04 0
0.0192775 0.037906 0
0.0192777 0.04 0
0.0174253 0.0379067 0
0.0174239 0.04 0
0.0211308 0.0379066 0
0.0211325 0.04 0
0.0192775 0.037906 0
0.0192777 0.04 0
0.0229927 0.0379087 0
0.022996 0.04 0
0.0211308 0.0379066 0
0.0211325 0.04 0
0.0248712 0.0379121 0
0.0248762 0.04 0
0.0229927 0.0379087 0
0.022996 0.04 0
0.0267745 0.0379171 0
0.0267813 0.04 0
0.0248712 0.0379121 0
0.0248762 0.04 0
0.028711 0.0379236 0
0.0287196 0.04 0
0.0267745 0.0379171 0
0.0267813 0.04 0
0.0306894 0.0379317 0
0.0306998 0.04 0
0.028711 0.0379236 0
0.0287196 0.04 0
0.0327183 0.0379414 0
0.0327305 0.04 0
0.0306894 0.0379317 0
0.0306998 0.04 0
0.00597297 0.0358738 0
0.00594612 0.0379357 0
0.00394494 0.0358902 0
0.00391461 0.0379439 0
0.00795777 0.0358593 0
0.00793424 0.0379284 0
0.00597297 0.0358738 0
0.00594612 0.0379357 0
0.00990471 0.0358465 0
0.00988455 0.037922 0
0.00795777 0.0358593 0
0.00793424 0.0379284 0
0.0118193 0.0358356 0
0.0118027 0.0379165 0
0.00990471 0.0358465 0
0.00988455 0.037922 0
0.0137074 0.0358268 0
0.0136947 0.0379121 0
0.0118193 0.0358356 0
0.0118027 0.0379165 0
0.0155752 0.0358203 0
0.0155667 0.0379088 0
0.0137074 0.0358268 0
0.0136947 0.0379121 0
0.0174295 0.0358164 0
0.0174253 0.0379067 0
0.0155752 0.0358203 0
0.0155667 0.0379088 0
0.0192772 0.035815 0
0.0192775 0.037906 0
0.0174295 0.0358164 0
0.0174253 0.0379067 0
0.0211256 0.0358164 0
0.0211308 0.0379066 0
0.0192772 0.035815 0
0.0192775 0.037906 0
0.0229826 0.0358206 0
0.0229927 0.0379087 0
0.0211256 0.0358164 0
0.0211308 0.0379066 0
0.024856 0.0358277 0
0.0248712 0.0379121 0
0.0229826 0.0358206 0
0.0229927 0.0379087 0
0.0267541 0.0358377 0
0.0267745 0.0379171 0
0.024856 0.0358277 0
0.0248712 0.0379121 0
0.0286852 0.0358508 0
0.028711 0.0379236 0
0.0267541 0.0358377 0
0.0267745 0.0379171 0
0.0306582 0.035867 0
0.0306894 0.0379317 0
0.0286852 0.0358508 0
0.028711 0.0379236 0
0.0326817 0.0358863 0
0.0327183 0.0379414 0
0.0306582 0.035867 0
0.0306894 0.0379317 0
0.00601766 0.0338169 0
0.00597297 0.0358738 0
0.00399529 0.0338413 0
0.00394494 0.0358902 0
0.00799701 0.0337951 0
0.00795777 0.0358593 0
0.00601766 0.0338169 0
0.00597297 0.0358738 0
0.00993834 0.033776 0
0.00990471 0.0358465 0
0.00799701 0.0337951 0
0.00795777 0.0358593 0
0.0118469 0.0337597 0
0.0118193 0.0358356 0
0.00993834 0.033776 0
0.00990471 0.0358465 0
0.0137286 0.0337467 0
0.0137074 0.0358268 0
0.0118469 0.0337597 0
0.0118193 0.0358356 0
0.0155895 0.0337373 0
0.0155752 0.0358203 0
0.0137286 0.0337467 0
0.0137074 0.0358268 0
0.0174364 0.0337317 0
0.0174295 0.0358164 0
0.0155895 0.0337373 0
0.0155752 0.0358203 0
0.0192764 0.0337301 0
0.0192772 0.035815 0
0.0174364 0.0337317 0
0.0174295 0.0358164 0
0.0211169 0.0337326 0
0.0211256 0.0358164 0
0.0192764 0.0337301 0
0.0192772 0.035815 0
0.0229657 0.0337392 0
0.0229826 0.0358206 0
0.0211169 0.0337326 0
0.0211256 0.0358164 0
0.0248307 0.0337501 0
0.024856 0.0358277 0
0.0229657 0.0337392 0
0.0229826 0.0358206 0
0.02672 0.0337653 0
0.0267541 0.0358377 0
0.0248307 0.0337501 0
0.024856 0.0358277 0
0.0286423 0.033785 0
0.0286852 0.0358508 0
0.02672 0.0337653 0
0.0267541 0.0358377 0
0.0306061 0.0338093 0
0.0306582 0.035867 0
0.0286423 0.033785 0
0.0286852 0.0358508 0
0.0326206 0.0338384 0
0.0326817 0.0358863 0
0.0306061 0.0338093 0
0.0306582 0.035867 0
0.00608009 0.031767 0
0.00601766 0.0338169 0
0.00406538 0.0317995 0
0.00399529 0.0338413 0
0.00805199 0.031738 0
0.00799701 0.0337951 0
0.00608009 0.031767 0
0.00601766 0.0338169 0
0.00998552 0.0317126 0
0.00993834 0.033776 0
0.00805199 0.031738 0
0.00799701 0.0337951 0
0.0118857 0.0316912 0
0.0118469 0.0337597 0
0.00998552 0.0317126 0
0.00993834 0.033776 0
0.0137581 0.0316743 0
0.0137286 0.0337467 0
0.0118857 0.0316912 0
0.0118469 0.0337597 0
0.0156092 0.0316623 0
0.0155895 0.0337373 0
0.0137581 0.0316743 0
0.0137286 0.0337467 0
0.0174457 0.0316556 0
0.0174364 0.0337317 0
0.0156092 0.0316623 0
0.0155895 0.0337373 0
0.019275 0.0316543 0
0.0192764 0.0337301 0
0.0174457 0.0316556 0
0.0174364 0.0337317 0
0.0211045 0.0316584 0
0.0211169 0.0337326 0
0.019275 0.0316543 0
0.0192764 0.0337301 0
0.0229418 0.0316679 0
0.0229657 0.0337392 0
0.0211045 0.0316584 0
0.0211169 0.0337326 0
0.0247951 0.0316829 0
0.0248307 0.0337501 0
0.0229418 0.0316679 0
0.0229657 0.0337392 0
0.0266724 0.0317035 0
0.02672 0.0337653 0
0.0247951 0.0316829 0
0.0248307 0.0337501 0
0.0285822 0.0317299 0
0.0286423 0.033785 0
0.0266724 0.0317035 0
0.02672 0.0337653 0
0.0305333 0.0317625 0
0.0306061 0.0338093 0
0.0285822 0.0317299 0
0.0286423 0.033785 0
0.0325349 0.0318013 0
0.0326206 0.0338384 0
0.0305333 0.0317625 0
0.0306061 0.0338093 0
0.0061602 0.0297262 0
0.00608009 0.031767 0
0.00415481 0.0297665 0
0.00406538 0.0317995 0
0.00812281 0.0296901 0
0.00805199 0.031738 0
0.0061602 0.0297262 0
0.00608009 0.031767 0
0.0100463 0.0296584 0
0.00998552 0.0317126 0
0.00812281 0.0296901 0
0.00805199 0.031738 0
0.0119355 0.0296321 0
0.0118857 0.0316912 0
0.0100463 0.0296584 0
0.00998552 0.0317126 0
0.0137959 0.0296118 0
0.0137581 0.0316743 0
0.0119355 0.0296321 0
0.0118857 0.0316912 0
0.0156341 0.029598 0
0.0156092 0.0316623 0
0.0137959 0.0296118 0
0.0137581 0.0316743 0
0.0174572 0.029591 0
0.0174457 0.0316556 0
0.0156341 0.029598 0
0.0156092 0.0316623 0
0.0192726 0.0295908 0
0.019275 0.0316543 0
0.0174572 0.029591 0
0.0174457 0.0316556 0
0.0210878 0.0295973 0
0.0211045 0.0316584 0
0.0192726 0.0295908 0
0.019275 0.0316543 0
0.0229108 0.0296103 0
0.0229418 0.0316679 0
0.0210878 0.0295973 0
0.0211045 0.0316584 0
0.0247491 0.0296299 0
0.0247951 0.0316829 0
0.0229108 0.0296103 0
0.0229418 0.0316679 0
0.0266111 0.0296562 0
0.0266724 0.0317035 0
0.0247491 0.0296299 0
0.0247951 0.0316829 0
0.028505 0.0296896 0
0.0285822 0.0317299 0
0.0266111 0.0296562 0
0.0266724 0.0317035 0
0.0304397 0.0297303 0
0.0305333 0.0317625 0
0.028505 0.0296896 0
0.0285822 0.0317299 0
0.0324245 0.0297789 0
0.0325349 0.0318013 0
0.0304397 0.0297303 0
0.0305333 0.0317625 0
0.00625795 0.0276959 0
0.0061602 0.0297262 0
0.00426315 0.027744 0
0.00415481 0.0297665 0
0.00820964 0.0276526 0
0.00812281 0.0296901 0
0.00625795 0.0276959 0
0.0061602 0.0297262 0
0.010121 0.027615 0
0.0100463 0.0296584 0
0.00820964 0.0276526 0
0.00812281 0.0296901 0
0.0119963 0.0275842 0
0.0119355 0.0296321 0
0.010121 0.027615 0
0.0100463 0.0296584 0
0.0138416 0.0275612 0
0.0137959 0.0296118 0
0.0119963 0.0275842 0
0.0119355 0.0296321 0
0.0156637 0.0275467 0
0.0156341 0.029598 0
0.0138416 0.0275612 0
0.0137959 0.0296118 0
0.01747 0.0275407 0
0.0174572 0.029591 0
0.0156637 0.0275467 0
0.0156341 0.029598 0
0.0192685 0.0275429 0
0.0192726 0.0295908 0
0.01747 0.0275407 0
0.0174572 0.029591 0
0.0210666 0.0275529 0
0.0210878 0.0295973 0
0.0192685 0.0275429 0
0.0192726 0.0295908 0
0.0228721 0.0275704 0
0.0229108 0.0296103 0
0.0210666 0.0275529 0
0.0210878 0.0295973 0
0.0246926 0.0275953 0
0.0247491 0.0296299 0
0.0228721 0.0275704 0
0.0229108 0.0296103 0
0.0265361 0.0276277 0
0.0266111 0.0296562 0
0.0246926 0.0275953 0
0.0247491 0.0296299 0
0.0284107 0.0276681 0
0.028505 0.0296896 0
0.0265361 0.0276277 0
0.0266111 0.0296562 0
0.0303253 0.0277171 0
0.0304397 0.0297303 0
0.0284107 0.0276681 0
0.028505 0.0296896 0
0.0322894 0.0277754 0
0.0324245 0.0297789 0
0.0303253 0.0277171 0
0.0304397 0.0297303 0
0.00637352 0.0256769 0
0.00625795 0.0276959 0
0.00438992 0.0257327 0
0.00426315 0.027744 0
0.00831286 0.0256264 0
0.00820964 0.0276526 0
0.00637352 0.0256769 0
0.00625795 0.0276959 0
0.0102096 0.0255831 0
0.010121 0.027615 0
0.00831286 0.0256264 0
0.00820964 0.0276526 0
0.012068 0.0255487 0
0.0119963 0.0275842 0
0.0102096 0.0255831 0
0.010121 0.027615 0
0.0138945 0.0255245 0
0.0138416 0.0275612 0
0.012068 0.0255487 0
0.0119963 0.0275842 0
0.0156969 0.025511 0
0.0156637 0.0275467 0
0.0138945 0.0255245 0
0.0138416 0.0275612 0
0.0174833 0.0255078 0
0.01747 0.0275407 0
0.0156969 0.025511 0
0.0156637 0.0275467 0
0.0192617 0.0255142 0
0.0192685 0.0275429 0
0.0174833 0.0255078 0
0.01747 0.0275407 0
0.0210398 0.0255293 0
0.0210666 0.0275529 0
0.0192617 0.0255142 0
0.0192685 0.0275429 0
0.0228252 0.0255524 0
0.0228721 0.0275704 0
0.0210398 0.0255293 0
0.0210666 0.0275529 0
0.0246253 0.0255834 0
0.0246926 0.0275953 0
0.0228252 0.0255524 0
0.0228721 0.0275704 0
0.0264474 0.0256223 0
0.0265361 0.0276277 0
0.0246253 0.0255834 0
0.0246926 0.0275953 0
0.0282997 0.0256699 0
0.0284107 0.0276681 0
0.0264474 0.0256223 0
0.0265361 0.0276277 0
0.0301906 0.0257271 0
0.0303253 0.0277171 0
0.0282997 0.0256699 0
0.0284107 0.0276681 0
0.0321297 0.0257951 0
0.0322894 0.0277754 0
0.0301906 0.0257271 0
0.0303253 0.0277171 0
0.00650736 0.023669 0
0.00637352 0.0256769 0
0.00453476 0.0237326 0
0.00438992 0.0257327 0
0.0084331 0.0236114 0
0.00831286 0.0256264 0
0.00650736 0.023669 0
0.00637352 0.0256769 0
0.0103124 0.0235629 0
0.0102096 0.0255831 0
0.0084331 0.0236114 0
0.00831286 0.0256264 0
0.0121499 0.0235263 0
0.012068 0.0255487 0
0.0103124 0.0235629 0
0.0102096 0.0255831 0
0.0139535 0.0235032 0
0.0138945 0.0255245 0
0.0121499 0.0235263 0
0.012068 0.0255487 0
0.0157323 0.0234934 0
0.0156969 0.025511 0
0.0139535 0.0235032 0
0.0138945 0.0255245 0
0.0174953 0.0234957 0
0.0174833 0.0255078 0
0.0157323 0.0234934 0
0.0156969 0.025511 0
0.0192508 0.0235086 0
0.0192617 0.0255142 0
0.0174953 0.0234957 0
0.0174833 0.0255078 0
0.0210065 0.0235307 0
0.0210398 0.0255293 0
0.0192508 0.0235086 0
0.0192617 0.0255142 0
0.0227696 0.023561 0
0.0228252 0.0255524 0
0.0210065 0.0235307 0
0.0210398 0.0255293 0
0.0245469 0.023599 0
0.0246253 0.0255834 0
0.0227696 0.023561 0
0.0228252 0.0255524 0
0.0263452 0.023645 0
0.0264474 0.0256223 0
0.0245469 0.023599 0
0.0246253 0.0255834 0
0.0281722 0.0237 0
0.0282997 0.0256699 0
0.0263452 0.023645 0
0.0264474 0.0256223 0
0.0300359 0.0237653 0
0.0301906 0.0257271 0
0.0281722 0.0237 0
0.0282997 0.0256699 0
0.0319458 0.0238427 0
0.0321297 0.0257951 0
0.0300359 0.0237653 0
0.0301906 0.0257271 0
0.00666058 0.0216707 0
0.00650736 0.023669 0
0.00469752 0.0217423 0
0.00453476 0.0237326 0
0.00857136 0.0216059 0
0.0084331 0.0236114 0
0.00666058 0.0216707 0
0.00650736 0.023669 0
0.0104292 0.0215534 0
0.0103124 0.0235629 0
0.00857136 0.0216059 0
0.0084331 0.0236114 0
0.0122407 0.0215174 0
0.0121499 0.0235263 0
0.0104292 0.0215534 0
0.0103124 0.0235629 0
0.0140164 0.0214989 0
0.0139535 0.0235032 0
0.0122407 0.0215174 0
0.0121499 0.0235263 0
0.0157673 0.0214968 0
0.0157323 0.0234934 0
0.0140164 0.0214989 0
0.0139535 0.0235032 0
0.0175037 0.0215083 0
0.0174953 0.0234957 0
0.0157673 0.0214968 0
0.0157323 0.0234934 0
0.0192339 0.0215309 0
0.0192508 0.0235086 0
0.0175037 0.0215083 0
0.0174953 0.0234957 0
0.0209654 0.0215623 0
0.0210065 0.0235307 0
0.0192339 0.0215309 0
0.0192508 0.0235086 0
0.0227044 0.0216013 0
0.0227696 0.023561 0
0.0209654 0.0215623 0
0.0210065 0.0235307 0
0.0244572 0.0216474 0
0.0245469 0.023599 0
0.0227044 0.0216013 0
0.0227696 0.023561 0
0.0262298 0.021701 0
0.0263452 0.023645 0
0.0244572 0.0216474 0
0.0245469 0.023599 0
0.0280289 0.0217634 0
0.0281722 0.0237 0
0.0262298 0.021701 0
0.0263452 0.023645 0
0.0298621 0.0218365 0
0.0300359 0.0237653 0
0.0280289 0.0217634 0
0.0281722 0.0237 0
0.0317385 0.0219228 0
0.0319458 0.0238427 0
0.0298621 0.0218365 0
0.0300359 0.0237653 0
0.00683541 0.0196778 0
0.00666058 0.0216707 0
0.00487867 0.0197582 0
0.00469752 0.0217423 0
0.00872908 0.019606 0
0.00857136 0.0216059 0
0.00683541 0.0196778 0
0.00666058 0.0216707 0
0.0105594 0.0195522 0
0.0104292 0.0215534 0
0.00872908 0.019606 0
0.00857136 0.0216059 0
0.0123377 0.0195218 0
0.0122407 0.0215174 0
0.0105594 0.0195522 0
0.0104292 0.0215534 0
0.0140794 0.0195141 0
0.0140164 0.0214989 0
0.0123377 0.0195218 0
0.0122407 0.0215174 0
0.0157983 0.0195253 0
0.0157673 0.0214968 0
0.0140794 0.0195141 0
0.0140164 0.0214989 0
0.0175054 0.0195508 0
0.0175037 0.0215083 0
0.0157983 0.0195253 0
0.0157673 0.0214968 0
0.0192087 0.0195866 0
0.0192339 0.0215309 0
0.0175054 0.0195508 0
0.0175037 0.0215083 0
0.0209148 0.0196299 0
0.0209654 0.0215623 0
0.0192087 0.0195866 0
0.0192339 0.0215309 0
0.0226289 0.0196792 0
0.0227044 0.0216013 0
0.0209148 0.0196299 0
0.0209654 0.0215623 0
0.0243561 0.0197343 0
0.0244572 0.0216474 0
0.0226289 0.0196792 0
0.0227044 0.0216013 0
0.0261014 0.0197958 0
0.0262298 0.021701 0
0.0243561 0.0197343 0
0.0244572 0.0216474 0
0.0278707 0.0198655 0
0.0280289 0.0217634 0
0.0261014 0.0197958 0
0.0262298 0.021701 0
0.0296705 0.019946 0
0.0298621 0.0218365 0
0.0278707 0.0198655 0
0.0280289 0.0217634 0
0.0315091 0.0200407 0
0.0317385 0.0219228 0
0.0296705 0.019946 0
0.0298621 0.0218365 0
0.00703624 0.0176825 0
0.00683541 0.0196778 0
0.00507999 0.0177726 0
0.00487867 0.0197582 0
0.00890779 0.0176046 0
0.00872908 0.019606 0
0.00703624 0.0176825 0
0.00683541 0.0196778 0
0.0106999 0.0175559 0
0.0105594 0.0195522 0
0.00890779 0.0176046 0
0.00872908 0.019606 0
0.0124353 0.0175404 0
0.0123377 0.0195218 0
0.0106999 0.0175559 0
0.0105594 0.0195522 0
0.0141366 0.0175529 0
0.0140794 0.0195141 0
0.0124353 0.0175404 0
0.0123377 0.0195218 0
0.0158203 0.0175851 0
0.0157983 0.0195253 0
0.0141366 0.0175529 0
0.0140794 0.0195141 0
0.0174967 0.0176299 0
0.0175054 0.0195508 0
0.0158203 0.0175851 0
0.0157983 0.0195253 0
0.0191727 0.0176825 0
0.0192087 0.0195866 0
0.0174967 0.0176299 0
0.0175054 0.0195508 0
0.0208533 0.01774 0
0.0209148 0.0196299 0
0.0191727 0.0176825 0
0.0192087 0.0195866 0
0.0225424 0.017801 0
0.0226289 0.0196792 0
0.0208533 0.01774 0
0.0209148 0.0196299 0
0.0242437 0.0178657 0
0.0243561 0.0197343 0
0.0225424 0.017801 0
0.0226289 0.0196792 0
0.0259611 0.0179351 0
0.0261014 0.0197958 0
0.0242437 0.0178657 0
0.0243561 0.0197343 0
0.0276989 0.0180118 0
0.0278707 0.0198655 0
0.0259611 0.0179351 0
0.0261014 0.0197958 0
0.0294628 0.0180989 0
0.0296705 0.019946 0
0.0276989 0.0180118 0
0.0278707 0.0198655 0
0.0312597 0.018201 0
0.0315091 0.0200407 0
0.0294628 0.0180989 0
0.0296705 0.019946 0
0.0072713 0.0156681 0
0.00703624 0.0176825 0
0.00530724 0.0157723 0
0.00507999 0.0177726 0
0.00910673 0.0155908 0
0.00890779 0.0176046 0
0.0072713 0.0156681 0
0.00703624 0.0176825 0
0.0108424 0.0155614 0
0.0106999 0.0175559 0
0.00910673 0.0155908 0
0.00890779 0.0176046 0
0.0125229 0.0155785 0
0.0124353 0.0175404 0
0.0108424 0.0155614 0
0.0106999 0.0175559 0
0.0141796 0.0156241 0
0.0141366 0.0175529 0
0.0125229 0.0155785 0
0.0124353 0.0175404 0
0.0158272 0.0156855 0
0.0158203 0.0175851 0
0.0141796 0.0156241 0
0.0141366 0.0175529 0
0.0174736 0.0157547 0
0.0174967 0.0176299 0
0.0158272 0.0156855 0
0.0158203 0.0175851 0
0.0191235 0.015827 0
0.0191727 0.0176825 0
0.0174736 0.0157547 0
0.0174967 0.0176299 0
0.0207798 0.0159001 0
0.0208533 0.01774 0
0.0191235 0.015827 0
0.0191727 0.0176825 0
0.0224448 0.0159734 0
0.0225424 0.017801 0
0.0207798 0.0159001 0
0.0208533 0.01774 0
0.0241207 0.0160476 0
0.0242437 0.0178657 0
0.0224448 0.0159734 0
0.0225424 0.017801 0
0.0258099 0.0161246 0
0.0259611 0.0179351 0
0.0241207 0.0160476 0
0.0242437 0.0178657 0
0.0275154 0.0162075 0
0.0276989 0.0180118 0
0.0258099 0.0161246 0
0.0259611 0.0179351 0
0.0292412 0.0163003 0
0.0294628 0.0180989 0
0.0275154 0.0162075 0
0.0276989 0.0180118 0
0.030993 0.0164086 0
0.0312597 0.018201 0
0.0292412 0.0163003 0
0.0294628 0.0180989 0
0.00755349 0.0136091 0
0.0072713 0.0156681 0
0.0055743 0.0137191 0
0.00530724 0.0157723 0
0.00931556 0.0135464 0
0.00910673 0.0155908 0
0.00755349 0.0136091 0
0.0072713 0.0156681 0
0.0109649 0.0135779 0
0.0108424 0.0155614 0
0.00931556 0.0135464 0
0.00910673 0.0155908 0
0.012586 0.0136517 0
0.0125229 0.0155785 0
0.0109649 0.0135779 0
0.0108424 0.0155614 0
0.0141991 0.0137433 0
0.0141796 0.0156241 0
0.012586 0.0136517 0
0.0125229 0.0155785 0
0.0158136 0.0138402 0
0.0158272 0.0156855 0
0.0141991 0.0137433 0
0.0141796 0.0156241 0
0.0174333 0.0139364 0
0.0174736 0.0157547 0
0.0158136 0.0138402 0
0.0158272 0.0156855 0
0.0190598 0.0140292 0
0.0191235 0.015827 0
0.0174333 0.0139364 0
0.0174736 0.0157547 0
0.0206941 0.0141179 0
0.0207798 0.0159001 0
0.0190598 0.0140292 0
0.0191235 0.015827 0
0.0223367 0.0142029 0
0.0224448 0.0159734 0
0.0206941 0.0141179 0
0.0207798 0.0159001 0
0.0239883 0.0142859 0
0.0241207 0.0160476 0
0.0223367 0.0142029 0
0.0224448 0.0159734 0
0.0256498 0.0143695 0
0.0258099 0.0161246 0
0.0239883 0.0142859 0
0.0241207 0.0160476 0
0.0273225 0.0144574 0
0.0275154 0.0162075 0
0.0256498 0.0143695 0
0.0258099 0.0161246 0
0.0290089 0.0145546 0
0.0292412 0.0163003 0
0.0273225 0.0144574 0
0.0275154 0.0162075 0
0.0307126 0.0146675 0
0.030993 0.0164086 0
0.0290089 0.0145546 0
0.0292412 0.0163003 0
0.00789204 0.0114131 0
0.00755349 0.0136091 0
0.0059566 0.011591 0
0.0055743 0.0137191 0
0.00947159 0.0115016 0
0.00931556 0.0135464 0
0.00789204 0.0114131 0
0.00755349 0.0136091 0
0.0110414 0.0116433 0
0.0109649 0.0135779 0
0.00947159 0.0115016 0
0.00931556 0.0135464 0
0.0126106 0.0117913 0
0.012586 0.0136517 0
0.0110414 0.0116433 0
0.0109649 0.0135779 0
0.0141888 0.0119334 0
0.0141991 0.0137433 0
0.0126106 0.0117913 0
0.012586 0.0136517 0
0.015777 0.0120657 0
0.0158136 0.0138402 0
0.0141888 0.0119334 0
0.0141991 0.0137433 0
0.017375 0.0121873 0
0.0174333 0.0139364 0
0.015777 0.0120657 0
0.0158136 0.0138402 0
0.018982 0.0122986 0
0.0190598 0.0140292 0
0.017375 0.0121873 0
0.0174333 0.0139364 0
0.0205972 0.0124006 0
0.0206941 0.0141179 0
0.018982 0.0122986 0
0.0190598 0.0140292 0
0.0222196 0.0124954 0
0.0223367 0.0142029 0
0.0205972 0.0124006 0
0.0206941 0.0141179 0
0.0238483 0.0125854 0
0.0239883 0.0142859 0
0.0222196 0.0124954 0
0.0223367 0.0142029 0
0.0254829 0.012674 0
0.0256498 0.0143695 0
0.0238483 0.0125854 0
0.0239883 0.0142859 0
0.0271231 0.0127655 0
0.0273225 0.0144574 0
0.0254829 0.012674 0
0.0256498 0.0143695 0
0.0287694 0.0128655 0
0.0290089 0.0145546 0
0.0271231 0.0127655 0
0.0273225 0.0144574 0
0.030423 0.012981 0
0.0307126 0.0146675 0
0.0287694 0.0128655 0
0.0290089 0.0145546 0
0.00803589 0.00925689 0
0.00789204 0.0114131 0
0.00665974 0.00884022 0
0.0059566 0.011591 0
0.00954021 0.00957986 0
0.00947159 0.0115016 0
0.00803589 0.00925689 0
0.00789204 0.0114131 0
0.0110559 0.00982903 0
0.0110414 0.0116433 0
0.00954021 0.00957986 0
0.00947159 0.0115016 0
0.0125942 0.0100388 0
0.0126106 0.0117913 0
0.0110559 0.00982903 0
0.0110414 0.0116433 0
0.0141494 0.0102202 0
0.0141888 0.0119334 0
0.0125942 0.0100388 0
0.0126106 0.0117913 0
0.0157192 0.0103789 0
0.015777 0.0120657 0
0.0141494 0.0102202 0
0.0141888 0.0119334 0
0.017301 0.0105188 0
0.017375 0.0121873 0
0.0157192 0.0103789 0
0.015777 0.0120657 0
0.0188925 0.0106431 0
0.018982 0.0122986 0
0.017301 0.0105188 0
0.017375 0.0121873 0
0.0204914 0.0107543 0
0.0205972 0.0124006 0
0.0188925 0.0106431 0
0.018982 0.0122986 0
0.0220957 0.0108555 0
0.0222196 0.0124954 0
0.0204914 0.0107543 0
0.0205972 0.0124006 0
0.0237033 0.0109499 0
0.0238483 0.0125854 0
0.0220957 0.0108555 0
0.0222196 0.0124954 0
0.0253122 0.0110413 0
0.0254829 0.012674 0
0.0237033 0.0109499 0
0.0238483 0.0125854 0
0.0269205 0.0111345 0
0.0271231 0.0127655 0
0.0253122 0.0110413 0
0.0254829 0.012674 0
0.0285266 0.0112353 0
0.0287694 0.0128655 0
0.0269205 0.0111345 0
0.0271231 0.0127655 0
0.0301294 0.0113514 0
0.030423 0.012981 0
0.0285266 0.0112353 0
0.0287694 0.0128655 0
0.00810428 0.00762785 0
0.00803589 0.00925689 0
0.00687079 0.00731036 0
0.00665974 0.00884022 0
0.00953948 0.00793117 0
0.00954021 0.00957986 0
0.00810428 0.00762785 0
0.00803589 0.00925689 0
0.0110311 0.00819955 0
0.0110559 0.00982903 0
0.00953948 0.00793117 0
0.00954021 0.00957986 0
0.01255 0.0084272 0
0.0125942 0.0100388 0