# vtk DataFile Version 3.0
#This file was generated by the deal.II library on 2021/1/5 at 13:55:20
ASCII
DATASET UNSTRUCTURED_GRID

POINTS 2700 double
0.0322581 0.516129 0
0 0.516129 0
0.0322581 0.483871 0
0 0.483871 0
0.0322581 0.548387 0
0 0.548387 0
0.0322581 0.516129 0
0 0.516129 0
0.0322581 0.580645 0
0 0.580645 0
0.0322581 0.548387 0
0 0.548387 0
0.0322581 0.612903 0
0 0.612903 0
0.0322581 0.580645 0
0 0.580645 0
0.0322581 0.645161 0
0 0.645161 0
0.0322581 0.612903 0
0 0.612903 0
0.0322581 0.677419 0
0 0.677419 0
0.0322581 0.645161 0
0 0.645161 0
0.0322581 0.709677 0
0 0.709677 0
0.0322581 0.677419 0
0 0.677419 0
0.0322581 0.741935 0
0 0.741935 0
0.0322581 0.709677 0
0 0.709677 0
0.0322581 0.774193 0
0 0.774193 0
0.0322581 0.741935 0
0 0.741935 0
0.0322581 0.806452 0
0 0.806452 0
0.0322581 0.774193 0
0 0.774193 0
0.0322581 0.83871 0
0 0.83871 0
0.0322581 0.806452 0
0 0.806452 0
0.0322581 0.870968 0
0 0.870968 0
0.0322581 0.83871 0
0 0.83871 0
0.0322581 0.903226 0
0 0.903226 0
0.0322581 0.870968 0
0 0.870968 0
0.0322581 0.935484 0
0 0.935484 0
0.0322581 0.903226 0
0 0.903226 0
0.0322581 0.967742 0
0 0.967742 0
0.0322581 0.935484 0
0 0.935484 0
0.0645161 0.516129 0
0.0322581 0.516129 0
0.0645161 0.483871 0
0.0322581 0.483871 0
0.0645161 0.548387 0
0.0322581 0.548387 0
0.0645161 0.516129 0
0.0322581 0.516129 0
0.0645161 0.580645 0
0.0322581 0.580645 0
0.0645161 0.548387 0
0.0322581 0.548387 0
0.0645161 0.612903 0
0.0322581 0.612903 0
0.0645161 0.580645 0
0.0322581 0.580645 0
0.0645161 0.645161 0
0.0322581 0.645161 0
0.0645161 0.612903 0
0.0322581 0.612903 0
0.0645161 0.677419 0
0.0322581 0.677419 0
0.0645161 0.645161 0
0.0322581 0.645161 0
0.0645161 0.709677 0
0.0322581 0.709677 0
0.0645161 0.677419 0
0.0322581 0.677419 0
0.0645161 0.741935 0
0.0322581 0.741935 0
0.0645161 0.709677 0
0.0322581 0.709677 0
0.0645161 0.774193 0
0.0322581 0.774193 0
0.0645161 0.741935 0
0.0322581 0.741935 0
0.0645161 0.806452 0
0.0322581 0.806452 0
0.0645161 0.774193 0
0.0322581 0.774193 0
0.0645161 0.83871 0
0.0322581 0.83871 0
0.0645161 0.806452 0
0.0322581 0.806452 0
0.0645161 0.870968 0
0.0322581 0.870968 0
0.0645161 0.83871 0
0.0322581 0.83871 0
0.0645161 0.903226 0
0.0322581 0.903226 0
0.0645161 0.870968 0
0.0322581 0.870968 0
0.0645161 0.935484 0
0.0322581 0.935484 0
0.0645161 0.903226 0
0.0322581 0.903226 0
0.0645161 0.967742 0
0.0322581 0.967742 0
0.0645161 0.935484 0
0.0322581 0.935484 0
0.0967742 0.516129 0
0.0645161 0.516129 0
0.0967742 0.483871 0
0.0645161 0.483871 0
0.0967742 0.548387 0
0.0645161 0.548387 0
0.0967742 0.516129 0
0.0645161 0.516129 0
0.0967742 0.580645 0
0.0645161 0.580645 0
0.0967742 0.548387 0
0.0645161 0.548387 0
0.0967742 0.612903 0
0.0645161 0.612903 0
0.0967742 0.580645 0
0.0645161 0.580645 0
0.0967742 0.645161 0
0.0645161 0.645161 0
0.0967742 0.612903 0
0.0645161 0.612903 0
0.0967742 0.677419 0
0.0645161 0.677419 0
0.0967742 0.645161 0
0.0645161 0.645161 0
0.0967742 0.709677 0
0.0645161 0.709677 0
0.0967742 0.677419 0
0.0645161 0.677419 0
0.0967742 0.741935 0
0.0645161 0.741935 0
0.0967742 0.709677 0
0.0645161 0.709677 0
0.0967742 0.774193 0
0.0645161 0.774193 0
0.0967742 0.741935 0
0.0645161 0.741935 0
0.0967742 0.806452 0
0.0645161 0.806452 0
0.0967742 0.774193 0
0.0645161 0.774193 0
0.0967742 0.83871 0
0.0645161 0.83871 0
0.0967742 0.806452 0
0.0645161 0.806452 0
0.0967742 0.870968 0
0.0645161 0.870968 0
0.0967742 0.83871 0
0.0645161 0.83871 0
0.0967742 0.903226 0
0.0645161 0.903226 0
0.0967742 0.870968 0
0.0645161 0.870968 0
0.0967742 0.935484 0
0.0645161 0.935484 0
0.0967742 0.903226 0
0.0645161 0.903226 0
0.0967742 0.967742 0
0.0645161 0.967742 0
0.0967742 0.935484 0
0.0645161 0.935484 0
0.129032 0.516129 0
0.0967742 0.516129 0
0.129032 0.483871 0
0.0967742 0.483871 0
0.129032 0.548387 0
0.0967742 0.548387 0
0.129032 0.516129 0
0.0967742 0.516129 0
0.129032 0.580645 0
0.0967742 0.580645 0
0.129032 0.548387 0
0.0967742 0.548387 0
0.129032 0.612903 0
0.0967742 0.612903 0
0.129032 0.580645 0
0.0967742 0.580645 0
0.129032 0.645161 0
0.0967742 0.645161 0
0.129032 0.612903 0
0.0967742 0.612903 0
0.129032 0.677419 0
0.0967742 0.677419 0
0.129032 0.645161 0
0.0967742 0.645161 0
0.129032 0.709677 0
0.0967742 0.709677 0
0.129032 0.677419 0
0.0967742 0.677419 0
0.129032 0.741935 0
0.0967742 0.741935 0
0.129032 0.709677 0
0.0967742 0.709677 0
0.129032 0.774193 0
0.0967742 0.774193 0
0.129032 0.741935 0
0.0967742 0.741935 0
0.129032 0.806452 0
0.0967742 0.806452 0
0.129032 0.774193 0
0.0967742 0.774193 0
0.129032 0.83871 0
0.0967742 0.83871 0
0.129032 0.806452 0
0.0967742 0.806452 0
0.129032 0.870968 0
0.0967742 0.870968 0
0.129032 0.83871 0
0.0967742 0.83871 0
0.129032 0.903226 0
0.0967742 0.903226 0
0.129032 0.870968 0
0.0967742 0.870968 0
0.129032 0.935484 0
0.0967742 0.935484 0
0.129032 0.903226 0
0.0967742 0.903226 0
0.129032 0.967742 0
0.0967742 0.967742 0
0.129032 0.935484 0
0.0967742 0.935484 0
0.16129 0.516129 0
0.129032 0.516129 0
0.16129 0.483871 0
0.129032 0.483871 0
0.16129 0.548387 0
0.129032 0.548387 0
0.16129 0.516129 0
0.129032 0.516129 0
0.16129 0.580645 0
0.129032 0.580645 0
0.16129 0.548387 0
0.129032 0.548387 0
0.16129 0.612903 0
0.129032 0.612903 0
0.16129 0.580645 0
0.129032 0.580645 0
0.16129 0.645161 0
0.129032 0.645161 0
0.16129 0.612903 0
0.129032 0.612903 0
0.16129 0.677419 0
0.129032 0.677419 0
0.16129 0.645161 0
0.129032 0.645161 0
0.16129 0.709677 0
0.129032 0.709677 0
0.16129 0.677419 0
0.129032 0.677419 0
0.16129 0.741935 0
0.129032 0.741935 0
0.16129 0.709677 0
0.129032 0.709677 0
0.16129 0.774193 0
0.129032 0.774193 0
0.16129 0.741935 0
0.129032 0.741935 0
0.16129 0.806452 0
0.129032 0.806452 0
0.16129 0.774193 0
0.129032 0.774193 0
0.16129 0.83871 0
0.129032 0.83871 0
0.16129 0.806452 0
0.129032 0.806452 0
0.16129 0.870968 0
0.129032 0.870968 0
0.16129 0.83871 0
0.129032 0.83871 0
0.16129 0.903226 0
0.129032 0.903226 0
0.16129 0.870968 0
0.129032 0.870968 0
0.16129 0.935484 0
0.129032 0.935484 0
0.16129 0.903226 0
0.129032 0.903226 0
0.16129 0.967742 0
0.129032 0.967742 0
0.16129 0.935484 0
0.129032 0.935484 0
0.193548 0.516129 0
0.16129 0.516129 0
0.193548 0.483871 0
0.16129 0.483871 0
0.193548 0.548387 0
0.16129 0.548387 0
0.193548 0.516129 0
0.16129 0.516129 0
0.193548 0.580645 0
0.16129 0.580645 0
0.193548 0.548387 0
0.16129 0.548387 0
0.193548 0.612903 0
0.16129 0.612903 0
0.193548 0.580645 0
0.16129 0.580645 0
0.193548 0.645161 0
0.16129 0.645161 0
0.193548 0.612903 0
0.16129 0.612903 0
0.193548 0.677419 0
0.16129 0.677419 0
0.193548 0.645161 0
0.16129 0.645161 0
0.193548 0.709677 0
0.16129 0.709677 0
0.193548 0.677419 0
0.16129 0.677419 0
0.193548 0.741935 0
0.16129 0.741935 0
0.193548 0.709677 0
0.16129 0.709677 0
0.193548 0.774193 0
0.16129 0.774193 0
0.193548 0.741935 0
0.16129 0.741935 0
0.193548 0.806452 0
0.16129 0.806452 0
0.193548 0.774193 0
0.16129 0.774193 0
0.193548 0.83871 0
0.16129 0.83871 0
0.193548 0.806452 0
0.16129 0.806452 0
0.193548 0.870968 0
0.16129 0.870968 0
0.193548 0.83871 0
0.16129 0.83871 0
0.193548 0.903226 0
0.16129 0.903226 0
0.193548 0.870968 0
0.16129 0.870968 0
0.193548 0.935484 0
0.16129 0.935484 0
0.193548 0.903226 0
0.16129 0.903226 0
0.193548 0.967742 0
0.16129 0.967742 0
0.193548 0.935484 0
0.16129 0.935484 0
0.225806 0.516129 0
0.193548 0.516129 0
0.225806 0.483871 0
0.193548 0.483871 0
0.225806 0.548387 0
0.193548 0.548387 0
0.225806 0.516129 0
0.193548 0.516129 0
0.225806 0.580645 0
0.193548 0.580645 0
0.225806 0.548387 0
0.193548 0.548387 0
0.225806 0.612903 0
0.193548 0.612903 0
0.225806 0.580645 0
0.193548 0.580645 0
0.225806 0.645161 0
0.193548 0.645161 0
0.225806 0.612903 0
0.193548 0.612903 0
0.225806 0.677419 0
0.193548 0.677419 0
0.225806 0.645161 0
0.193548 0.645161 0
0.225806 0.709677 0
0.193548 0.709677 0
0.225806 0.677419 0
0.193548 0.677419 0
0.225806 0.741935 0
0.193548 0.741935 0
0.225806 0.709677 0
0.193548 0.709677 0
0.225806 0.774193 0
0.193548 0.774193 0
0.225806 0.741935 0
0.193548 0.741935 0
0.225806 0.806452 0
0.193548 0.806452 0
0.225806 0.774193 0
0.193548 0.774193 0
0.225806 0.83871 0
0.193548 0.83871 0
0.225806 0.806452 0
0.193548 0.806452 0
0.225806 0.870968 0
0.193548 0.870968 0
0.225806 0.83871 0
0.193548 0.83871 0
0.225806 0.903226 0
0.193548 0.903226 0
0.225806 0.870968 0
0.193548 0.870968 0
0.225806 0.935484 0
0.193548 0.935484 0
0.225806 0.903226 0
0.193548 0.903226 0
0.225806 0.967742 0
0.193548 0.967742 0
0.225806 0.935484 0
0.193548 0.935484 0
0.258064 0.516129 0
0.225806 0.516129 0
0.258064 0.483871 0
0.225806 0.483871 0
0.258064 0.548387 0
0.225806 0.548387 0
0.258064 0.516129 0
0.225806 0.516129 0
0.258064 0.580645 0
0.225806 0.580645 0
0.258064 0.548387 0
0.225806 0.548387 0
0.258064 0.612903 0
0.225806 0.612903 0
0.258064 0.580645 0
0.225806 0.580645 0
0.258064 0.645161 0
0.225806 0.645161 0
0.258064 0.612903 0
0.225806 0.612903 0
0.258064 0.677419 0
0.225806 0.677419 0
0.258064 0.645161 0
0.225806 0.645161 0
0.258064 0.709677 0
0.225806 0.709677 0
0.258064 0.677419 0
0.225806 0.677419 0
0.258064 0.741935 0
0.225806 0.741935 0
0.258064 0.709677 0
0.225806 0.709677 0
0.258064 0.774193 0
0.225806 0.774193 0
0.258064 0.741935 0
0.225806 0.741935 0
0.258064 0.806452 0
0.225806 0.806452 0
0.258064 0.774193 0
0.225806 0.774193 0
0.258064 0.83871 0
0.225806 0.83871 0
0.258064 0.806452 0
0.225806 0.806452 0
0.258064 0.870968 0
0.225806 0.870968 0
0.258064 0.83871 0
0.225806 0.83871 0
0.258064 0.903226 0
0.225806 0.903226 0
0.258064 0.870968 0
0.225806 0.870968 0
0.258064 0.935484 0
0.225806 0.935484 0
0.258064 0.903226 0
0.225806 0.903226 0
0.258064 0.967742 0
0.225806 0.967742 0
0.258064 0.935484 0
0.225806 0.935484 0
0.290323 0.516129 0
0.258064 0.516129 0
0.290323 0.483871 0
0.258064 0.483871 0
0.290323 0.548387 0
0.258064 0.548387 0
0.290323 0.516129 0
0.258064 0.516129 0
0.290323 0.580645 0
0.258064 0.580645 0
0.290323 0.548387 0
0.258064 0.548387 0
0.290323 0.612903 0
0.258064 0.612903 0
0.290323 0.580645 0
0.258064 0.580645 0
0.290323 0.645161 0
0.258064 0.645161 0
[...]
POINT_DATA 2700
VECTORS u double
0.0148653 0.0948392 0
0.0148429 0.1 0
0.00978653 0.0948597 0
0.00976121 0.1 0
0.0198356 0.094821 0
0.019816 0.1 0
0.0148653 0.0948392 0
0.0148429 0.1 0
0.0247114 0.094805 0
0.0246946 0.1 0
0.0198356 0.094821 0
0.019816 0.1 0
0.0295068 0.0947913 0
0.029493 0.1 0
0.0247114 0.094805 0
0.0246946 0.1 0
0.0342367 0.0947802 0
0.0342261 0.1 0
0.0295068 0.0947913 0
0.029493 0.1 0
0.0389166 0.094772 0
0.0389095 0.1 0
0.0342367 0.0947802 0
0.0342261 0.1 0
0.0435632 0.0947669 0
0.0435596 0.1 0
0.0389166 0.094772 0
0.0389095 0.1 0
0.0481938 0.094765 0
0.0481941 0.1 0
0.0435632 0.0947669 0
0.0435596 0.1 0
0.052827 0.0947666 0
0.0528312 0.1 0
0.0481938 0.094765 0
0.0481941 0.1 0
0.0574817 0.0947716 0
0.0574901 0.1 0
0.052827 0.0947666 0
0.0528312 0.1 0
0.0621779 0.0947803 0
0.0621906 0.1 0
0.0574817 0.0947716 0
0.0574901 0.1 0
0.0669362 0.0947928 0
0.0669532 0.1 0
0.0621779 0.0947803 0
0.0621906 0.1 0
0.0717775 0.0948091 0
0.0717989 0.1 0
0.0669362 0.0947928 0
0.0669532 0.1 0
0.0767234 0.0948293 0
0.0767494 0.1 0
0.0717775 0.0948091 0
0.0717989 0.1 0
0.0817957 0.0948535 0
0.0818262 0.1 0
0.0767234 0.0948293 0
0.0767494 0.1 0
0.0149324 0.0896846 0
0.0148653 0.0948392 0
0.00986235 0.0897255 0
0.00978653 0.0948597 0
0.0198944 0.0896482 0
0.0198356 0.094821 0
0.0149324 0.0896846 0
0.0148653 0.0948392 0
0.0247618 0.0896162 0
0.0247114 0.094805 0
0.0198944 0.0896482 0
0.0198356 0.094821 0
0.0295482 0.089589 0
0.0295068 0.0947913 0
0.0247618 0.0896162 0
0.0247114 0.094805 0
0.0342685 0.089567 0
0.0342367 0.0947802 0
0.0295482 0.089589 0
0.0295068 0.0947913 0
0.0389381 0.0895508 0
0.0389166 0.094772 0
0.0342685 0.089567 0
0.0342367 0.0947802 0
0.0435737 0.0895409 0
0.0435632 0.0947669 0
0.0389381 0.0895508 0
0.0389166 0.094772 0
0.0481929 0.0895376 0
0.0481938 0.094765 0
0.0435737 0.0895409 0
0.0435632 0.0947669 0
0.0528141 0.089541 0
0.052827 0.0947666 0
0.0481929 0.0895376 0
0.0481938 0.094765 0
0.0574565 0.0895515 0
0.0574817 0.0947716 0
0.0528141 0.089541 0
0.052827 0.0947666 0
0.06214 0.0895692 0
0.0621779 0.0947803 0
0.0574565 0.0895515 0
0.0574817 0.0947716 0
0.0668852 0.0895942 0
0.0669362 0.0947928 0
0.06214 0.0895692 0
0.0621779 0.0947803 0
0.0717131 0.0896269 0
0.0717775 0.0948091 0
0.0668852 0.0895942 0
0.0669362 0.0947928 0
0.0766454 0.0896675 0
0.0767234 0.0948293 0
0.0717131 0.0896269 0
0.0717775 0.0948091 0
0.0817042 0.0897159 0
0.0817957 0.0948535 0
0.0766454 0.0896675 0
0.0767234 0.0948293 0
0.0150441 0.0845422 0
0.0149324 0.0896846 0
0.00998823 0.0846033 0
0.00986235 0.0897255 0
0.0199925 0.0844877 0
0.0198944 0.0896482 0
0.0150441 0.0845422 0
0.0149324 0.0896846 0
0.0248459 0.0844399 0
0.0247618 0.0896162 0
0.0199925 0.0844877 0
0.0198944 0.0896482 0
0.0296173 0.0843993 0
0.0295482 0.089589 0
0.0248459 0.0844399 0
0.0247618 0.0896162 0
0.0343214 0.0843668 0
0.0342685 0.089567 0
0.0296173 0.0843993 0
0.0295482 0.089589 0
0.0389737 0.0843432 0
0.0389381 0.0895508 0
0.0343214 0.0843668 0
0.0342685 0.089567 0
0.0435909 0.0843293 0
0.0435737 0.0895409 0
0.0389737 0.0843432 0
0.0389381 0.0895508 0
0.048191 0.0843252 0
0.0481929 0.0895376 0
0.0435909 0.0843293 0
0.0435737 0.0895409 0
0.0527923 0.0843314 0
0.0528141 0.089541 0
0.048191 0.0843252 0
0.0481929 0.0895376 0
0.0574143 0.084348 0
0.0574565 0.0895515 0
0.0527923 0.0843314 0
0.0528141 0.089541 0
0.0620767 0.0843751 0
0.06214 0.0895692 0
0.0574143 0.084348 0
0.0574565 0.0895515 0
0.0668001 0.0844132 0
0.0668852 0.0895942 0
0.0620767 0.0843751 0
0.06214 0.0895692 0
0.0716057 0.0844624 0
0.0717131 0.0896269 0
0.0668001 0.0844132 0
0.0668852 0.0895942 0
0.0765154 0.0845233 0
0.0766454 0.0896675 0
0.0716057 0.0844624 0
0.0717131 0.0896269 0
0.0815515 0.084596 0
0.0817042 0.0897159 0
0.0765154 0.0845233 0
0.0766454 0.0896675 0
0.0152002 0.0794176 0
0.0150441 0.0845422 0
0.0101634 0.0794987 0
0.00998823 0.0846033 0
0.02013 0.0793451 0
0.0199925 0.0844877 0
0.0152002 0.0794176 0
0.0150441 0.0845422 0
0.0249638 0.0792815 0
0.0248459 0.0844399 0
0.02013 0.0793451 0
0.0199925 0.0844877 0
0.0297142 0.079228 0
0.0296173 0.0843993 0
0.0249638 0.0792815 0
0.0248459 0.0844399 0
0.0343953 0.0791857 0
0.0343214 0.0843668 0
0.0297142 0.079228 0
0.0296173 0.0843993 0
0.039023 0.0791558 0
0.0389737 0.0843432 0
0.0343953 0.0791857 0
0.0343214 0.0843668 0
0.0436143 0.0791391 0
0.0435909 0.0843293 0
0.039023 0.0791558 0
0.0389737 0.0843432 0
0.0481875 0.0791358 0
0.048191 0.0843252 0
0.0436143 0.0791391 0
0.0435909 0.0843293 0
0.0527611 0.079146 0
0.0527923 0.0843314 0
0.0481875 0.0791358 0
0.048191 0.0843252 0
0.0573546 0.0791697 0
0.0574143 0.084348 0
0.0527611 0.079146 0
0.0527923 0.0843314 0
0.0619878 0.0792072 0
0.0620767 0.0843751 0
0.0573546 0.0791697 0
0.0574143 0.084348 0
0.066681 0.0792587 0
0.0668001 0.0844132 0
0.0619878 0.0792072 0
0.0620767 0.0843751 0
0.0714555 0.0793248 0
0.0716057 0.0844624 0
0.066681 0.0792587 0
0.0668001 0.0844132 0
0.0763333 0.0794062 0
0.0765154 0.0845233 0
0.0714555 0.0793248 0
0.0716057 0.0844624 0
0.0813373 0.0795033 0
0.0815515 0.084596 0
0.0763333 0.0794062 0
0.0765154 0.0845233 0
0.0154005 0.0743155 0
0.0152002 0.0794176 0
0.010387 0.0744163 0
0.0101634 0.0794987 0
0.020307 0.0742251 0
0.02013 0.0793451 0
0.0154005 0.0743155 0
0.0152002 0.0794176 0
0.0251159 0.0741461 0
0.0249638 0.0792815 0
0.020307 0.0742251 0
0.02013 0.0793451 0
0.0298387 0.0740802 0
0.0297142 0.079228 0
0.0251159 0.0741461 0
0.0249638 0.0792815 0
0.0344897 0.0740294 0
0.0343953 0.0791857 0
0.0298387 0.0740802 0
0.0297142 0.079228 0
0.0390852 0.073995 0
0.039023 0.0791558 0
0.0344897 0.0740294 0
0.0343953 0.0791857 0
0.0436429 0.0739775 0
0.0436143 0.0791391 0
0.0390852 0.073995 0
0.039023 0.0791558 0
0.0481814 0.073977 0
0.0481875 0.0791358 0
0.0436429 0.0739775 0
0.0436143 0.0791391 0
0.0527196 0.0739932 0
0.0527611 0.079146 0
0.0481814 0.073977 0
0.0481875 0.0791358 0
0.0572769 0.0740259 0
0.0573546 0.0791697 0
0.0527196 0.0739932 0
0.0527611 0.079146 0
0.0618728 0.0740748 0
0.0619878 0.0792072 0
0.0572769 0.0740259 0
0.0573546 0.0791697 0
0.0665277 0.0741406 0
0.066681 0.0792587 0
0.0618728 0.0740748 0
0.0619878 0.0792072 0
0.0712624 0.0742239 0
0.0714555 0.0793248 0
0.0665277 0.0741406 0
0.066681 0.0792587 0
0.0760991 0.0743259 0
0.0763333 0.0794062 0
0.0712624 0.0742239 0
0.0714555 0.0793248 0
0.0810614 0.0744474 0
0.0813373 0.0795033 0
0.0760991 0.0743259 0
0.0763333 0.0794062 0
0.0156449 0.0692397 0
0.0154005 0.0743155 0
0.0106579 0.06936 0
0.010387 0.0744163 0
0.0205241 0.0691315 0
0.020307 0.0742251 0
0.0156449 0.0692397 0
0.0154005 0.0743155 0
0.0253024 0.0690374 0
0.0251159 0.0741461 0
0.0205241 0.0691315 0
0.020307 0.0742251 0
0.0299908 0.0689604 0
0.0298387 0.0740802 0
0.0253024 0.0690374 0
0.0251159 0.0741461 0
0.034604 0.0689031 0
0.0344897 0.0740294 0
0.0299908 0.0689604 0
0.0298387 0.0740802 0
0.0391591 0.0688668 0
0.0390852 0.073995 0
0.034604 0.0689031 0
0.0344897 0.0740294 0
0.0436751 0.0688518 0
0.0436429 0.0739775 0
0.0391591 0.0688668 0
0.0390852 0.073995 0
0.0481711 0.0688573 0
0.0481814 0.073977 0
0.0436751 0.0688518 0
0.0436429 0.0739775 0
0.0526664 0.0688823 0
0.0527196 0.0739932 0
0.0481711 0.0688573 0
0.0481814 0.073977 0
0.0571802 0.0689261 0
0.0572769 0.0740259 0
0.0526664 0.0688823 0
0.0527196 0.0739932 0
0.0617315 0.0689882 0
0.0618728 0.0740748 0
0.0571802 0.0689261 0
0.0572769 0.0740259 0
0.0663402 0.0690692 0
0.0665277 0.0741406 0
0.0617315 0.0689882 0
0.0618728 0.0740748 0
0.0710268 0.0691702 0
0.0712624 0.0742239 0
0.0663402 0.0690692 0
0.0665277 0.0741406 0
0.0758133 0.0692927 0
0.0760991 0.0743259 0
0.0710268 0.0691702 0
0.0712624 0.0742239 0
0.0807236 0.0694386 0
0.0810614 0.0744474 0
0.0758133 0.0692927 0
0.0760991 0.0743259 0
0.0159338 0.0641922 0
0.0156449 0.0692397 0
0.0109748 0.0643317 0
0.0106579 0.06936 0
0.0207822 0.0640661 0
0.0205241 0.0691315 0
0.0159338 0.0641922 0
0.0156449 0.0692397 0
0.025524 0.0639577 0
0.0253024 0.0690374 0
0.0207822 0.0640661 0
0.0205241 0.0691315 0
0.03017 0.0638717 0
0.0299908 0.0689604 0
0.025524 0.0639577 0
0.0253024 0.0690374 0
0.0347363 0.0638112 0
0.034604 0.0689031 0
0.03017 0.0638717 0
0.0299908 0.0689604 0
0.0392423 0.0637775 0
0.0391591 0.0688668 0
0.0347363 0.0638112 0
0.034604 0.0689031 0
0.0437082 0.0637696 0
0.0436751 0.0688518 0
0.0392423 0.0637775 0
0.0391591 0.0688668 0
0.0481542 0.0637855 0
0.0481711 0.0688573 0
0.0437082 0.0637696 0
0.0436751 0.0688518 0
0.0525996 0.0638232 0
0.0526664 0.0688823 0
0.0481542 0.0637855 0
0.0481711 0.0688573 0
0.0570631 0.063881 0
0.0571802 0.0689261 0
0.0525996 0.0638232 0
0.0526664 0.0688823 0
0.0615632 0.0639584 0
0.0617315 0.0689882 0
0.0570631 0.063881 0
0.0571802 0.0689261 0
0.0661186 0.0640558 0
0.0663402 0.0690692 0
0.0615632 0.0639584 0
0.0617315 0.0689882 0
0.0707492 0.0641748 0
0.0710268 0.0691702 0
0.0661186 0.0640558 0
0.0663402 0.0690692 0
0.0754764 0.0643178 0
0.0758133 0.0692927 0
0.0707492 0.0641748 0
0.0710268 0.0691702 0
0.0803243 0.0644878 0
0.0807236 0.0694386 0
0.0754764 0.0643178 0
0.0758133 0.0692927 0
0.0162684 0.0591725 0
0.0159338 0.0641922 0
0.0113369 0.0593315 0
0.0109748 0.0643317 0
0.0210827 0.0590286 0
0.0207822 0.0640661 0
0.0162684 0.0591725 0
0.0159338 0.0641922 0
0.0257809 0.0589073 0
0.025524 0.0639577 0
0.0210827 0.0590286 0
0.0207822 0.0640661 0
0.0303747 0.0588158 0
0.03017 0.0638717 0
0.0257809 0.0589073 0
0.025524 0.0639577 0
0.0348838 0.058758 0
0.0347363 0.0638112 0
0.0303747 0.0588158 0
0.03017 0.0638717 0
0.0393308 0.0587334 0
0.0392423 0.0637775 0
0.0348838 0.058758 0
0.0347363 0.0638112 0
0.0437381 0.0587392 0
0.0437082 0.0637696 0
0.0393308 0.0587334 0
0.0392423 0.0637775 0
0.048127 0.0587716 0
0.0481542 0.0637855 0
0.0437381 0.0587392 0
0.0437082 0.0637696 0
0.0525163 0.0588268 0
0.0525996 0.0638232 0
0.048127 0.0587716 0
0.0481542 0.0637855 0
0.056924 0.0589024 0
0.0570631 0.063881 0
0.0525163 0.0588268 0
0.0525996 0.0638232 0
0.0613672 0.0589974 0
0.0615632 0.0639584 0
0.056924 0.0589024 0
0.0570631 0.063881 0
0.0658631 0.0591126 0
0.0661186 0.0640558 0
0.0613672 0.0589974 0
0.0615632 0.0639584 0
0.0704305 0.05925 0
0.0707492 0.0641748 0
0.0658631 0.0591126 0
0.0661186 0.0640558 0
0.0750897 0.0594132 0
0.0754764 0.0643178 0
0.0704305 0.05925 0
0.0707492 0.0641748 0
0.0798645 0.0596066 0
0.0803243 0.0644878 0
0.0750897 0.0594132 0
0.0754764 0.0643178 0
0.0166514 0.0541767 0
0.0162684 0.0591725 0
0.0117438 0.0543557 0
0.0113369 0.0593315 0
0.0214284 0.0540147 0
0.0210827 0.0590286 0
0.0166514 0.0541767 0
0.0162684 0.0591725 0
0.026073 0.0538835 0
0.0257809 0.0589073 0
0.0214284 0.0540147 0
0.0210827 0.0590286 0
0.0306018 0.0537934 0
0.0303747 0.0588158 0
0.026073 0.0538835 0
0.0257809 0.0589073 0
0.035041 0.0537473 0
0.0348838 0.058758 0
0.0306018 0.0537934 0
0.0303747 0.0588158 0
0.0394184 0.0537419 0
0.0393308 0.0587334 0
0.035041 0.0537473 0
0.0348838 0.058758 0
0.0437592 0.0537708 0
0.0437381 0.0587392 0
0.0394184 0.0537419 0
0.0393308 0.0587334 0
0.0480848 0.0538272 0
0.048127 0.0587716 0
0.0437592 0.0537708 0
0.0437381 0.0587392 0
0.0524134 0.0539058 0
0.0525163 0.0588268 0
0.0480848 0.0538272 0
0.048127 0.0587716 0
0.056761 0.0540032 0
0.056924 0.0589024 0
0.0524134 0.0539058 0
0.0525163 0.0588268 0
0.0611429 0.0541185 0
0.0613672 0.0589974 0
0.056761 0.0540032 0
0.056924 0.0589024 0
0.0655744 0.0542525 0
0.0658631 0.0591126 0
0.0611429 0.0541185 0
0.0613672 0.0589974 0
0.0700722 0.0544084 0
0.0704305 0.05925 0
0.0655744 0.0542525 0
0.0658631 0.0591126 0
0.0746553 0.0545912 0
0.0750897 0.0594132 0
0.0700722 0.0544084 0
0.0704305 0.05925 0
0.0793462 0.0548071 0
0.0798645 0.0596066 0
0.0746553 0.0545912 0
0.0750897 0.0594132 0
0.0170885 0.0491946 0
0.0166514 0.0541767 0
0.0121967 0.0493954 0
0.0117438 0.0543557 0
0.0218227 0.0490151 0
0.0214284 0.0540147 0
0.0170885 0.0491946 0
0.0166514 0.0541767 0
0.0263985 0.0488806 0
0.026073 0.0538835 0
0.0218227 0.0490151 0
0.0214284 0.0540147 0
0.0308443 0.0488044 0
0.0306018 0.0537934 0
0.0263985 0.0488806 0
0.026073 0.0538835 0
0.0351985 0.0487852 0
0.035041 0.0537473 0
0.0308443 0.0488044 0
0.0306018 0.0537934 0
0.0394959 0.0488133 0
0.0394184 0.0537419 0
0.0351985 0.0487852 0
0.035041 0.0537473 0
0.0437635 0.0488769 0
0.0437592 0.0537708 0
0.0394959 0.0488133 0
0.0394184 0.0537419 0
0.0480218 0.0489664 0
0.0480848 0.0538272 0
0.0437635 0.0488769 0
0.0437592 0.0537708 0
0.0522869 0.0490747 0
0.0524134 0.0539058 0
0.0480218 0.0489664 0
0.0480848 0.0538272 0
0.0565722 0.0491981 0
0.056761 0.0540032 0
0.0522869 0.0490747 0
0.0524134 0.0539058 0
0.0608902 0.0493357 0
0.0611429 0.0541185 0
0.0565722 0.0491981 0
0.056761 0.0540032 0
0.0652536 0.0494895 0
0.0655744 0.0542525 0
0.0608902 0.0493357 0
0.0611429 0.0541185 0
0.0696767 0.0496637 0
0.0700722 0.0544084 0
0.0652536 0.0494895 0
0.0655744 0.0542525 0
0.0741762 0.0498649 0
0.0746553 0.0545912 0
0.0696767 0.0496637 0
0.0700722 0.0544084 0
0.0787728 0.0501017 0
0.0793462 0.0548071 0
0.0741762 0.0498649 0
0.0746553 0.0545912 0
0.0175906 0.0442063 0
0.0170885 0.0491946 0
0.0127 0.0444316 0
0.0121967 0.0493954 0
0.0222695 0.0440115 0
0.0218227 0.0490151 0
0.0175906 0.0442063 0
0.0170885 0.0491946 0
0.0267497 0.0438898 0
0.0263985 0.0488806 0
0.0222695 0.0440115 0
0.0218227 0.0490151 0
0.0310881 0.0438509 0
0.0308443 0.0488044 0
0.0267497 0.0438898 0
0.0263985 0.0488806 0
0.0353415 0.0438822 0
0.0351985 0.0487852 0
0.0310881 0.0438509 0
0.0308443 0.0488044 0
0.0395507 0.0439627 0
0.0394959 0.0488133 0
0.0353415 0.0438822 0
0.0351985 0.0487852 0
0.0437417 0.0440748 0
0.0437635 0.0488769 0
0.0395507 0.0439627 0
0.0394959 0.0488133 0
0.0479317 0.0442063 0
0.0480218 0.0489664 0
0.0437417 0.0440748 0
0.0437635 0.0488769 0
0.0521332 0.04435 0
0.0522869 0.0490747 0
0.0479317 0.0442063 0
0.0480218 0.0489664 0
0.056356 0.0445026 0
0.0565722 0.0491981 0
0.0521332 0.04435 0
0.0522869 0.0490747 0
0.0606093 0.0446642 0
0.0608902 0.0493357 0
0.056356 0.0445026 0
0.0565722 0.0491981 0
0.0649027 0.0448378 0
0.0652536 0.0494895 0
0.0606093 0.0446642 0
0.0608902 0.0493357 0
0.0692473 0.0450294 0
0.0696767 0.0496637 0
0.0649027 0.0448378 0
0.0652536 0.0494895 0
0.0736569 0.0452473 0
0.0741762 0.0498649 0
0.0692473 0.0450294 0
0.0696767 0.0496637 0
0.0781492 0.0455025 0
0.0787728 0.0501017 0
0.0736569 0.0452473 0
0.0741762 0.0498649 0
0.0181782 0.0391702 0
0.0175906 0.0442063 0
0.0132681 0.0394308 0
0.0127 0.0444316 0
0.0227668 0.038977 0
0.0222695 0.0440115 0
0.0181782 0.0391702 0
0.0175906 0.0442063 0
0.0271059 0.0389035 0
0.0267497 0.0438898 0
0.0227668 0.038977 0
0.0222695 0.0440115 0
0.0313072 0.0389462 0
0.0310881 0.0438509 0
0.0271059 0.0389035 0
0.0267497 0.0438898 0
0.035449 0.0390602 0
0.0353415 0.0438822 0
0.0313072 0.0389462 0
0.0310881 0.0438509 0
0.0395679 0.0392138 0
0.0395507 0.0439627 0
0.035449 0.0390602 0
0.0353415 0.0438822 0
0.043684 0.0393867 0
0.0437417 0.0440748 0
0.0395679 0.0392138 0
0.0395507 0.0439627 0
0.0478087 0.0395675 0
0.0479317 0.0442063 0
0.043684 0.0393867 0
0.0437417 0.0440748 0
0.0519495 0.0397502 0
0.0521332 0.04435 0
0.0478087 0.0395675 0
0.0479317 0.0442063 0
0.0561121 0.0399335 0
0.056356 0.0445026 0
0.0519495 0.0397502 0
0.0521332 0.04435 0
0.0603019 0.040119 0
0.0606093 0.0446642 0
0.0561121 0.0399335 0
0.056356 0.0445026 0
0.0645249 0.0403116 0
0.0649027 0.0448378 0
0.0603019 0.040119 0
0.0606093 0.0446642 0
0.0687886 0.0405187 0
0.0692473 0.0450294 0
0.0645249 0.0403116 0
0.0649027 0.0448378 0
0.0731031 0.0407508 0
0.0736569 0.0452473 0
0.0687886 0.0405187 0
0.0692473 0.0450294 0
0.0774824 0.0410214 0
0.0781492 0.0455025 0
0.0731031 0.0407508 0
0.0736569 0.0452473 0
0.0188837 0.0340227 0
0.0181782 0.0391702 0
0.0139357 0.0342978 0
0.0132681 0.0394308 0
0.0232889 0.0338661 0
0.0227668 0.038977 0
0.0188837 0.0340227 0
0.0181782 0.0391702 0
0.0274123 0.0339448 0
0.0271059 0.0389035 0
0.0232889 0.0338661 0
0.0227668 0.038977 0
0.0314651 0.0341293 0
0.0313072 0.0389462 0
0.0274123 0.0339448 0
0.0271059 0.0389035 0
0.0354978 0.0343582 0
0.035449 0.0390602 0
0.0314651 0.0341293 0
0.0313072 0.0389462 0
0.0395341 0.0346004 0
0.0395679 0.0392138 0
0.0354978 0.0343582 0
0.035449 0.0390602 0
0.0435832 0.034841 0
0.043684 0.0393867 0
0.0395341 0.0346004 0
0.0395679 0.0392138 0
0.0476496 0.035073 0
0.0478087 0.0395675 0
0.0435832 0.034841 0
0.043684 0.0393867 0
0.0517353 0.0352947 0
0.0519495 0.0397502 0
0.0476496 0.035073 0
0.0478087 0.0395675 0
0.0558418 0.0355072 0
0.0561121 0.0399335 0
0.0517353 0.0352947 0
0.0519495 0.0397502 0
0.0599708 0.0357146 0
0.0603019 0.040119 0
0.0558418 0.0355072 0
0.0561121 0.0399335 0
0.0641244 0.0359237 0
0.0645249 0.0403116 0
0.0599708 0.0357146 0
0.0603019 0.040119 0
0.0683063 0.0361436 0
0.0687886 0.0405187 0
0.0641244 0.0359237 0
0.0645249 0.0403116 0
0.0725223 0.0363866 0
0.0731031 0.0407508 0
0.0683063 0.0361436 0
0.0687886 0.0405187 0
0.0767815 0.0366687 0
0.0774824 0.0410214 0
0.0725223 0.0363866 0
0.0731031 0.0407508 0
0.0197301 0.0285327 0
0.0188837 0.0340227 0
0.0148915 0.0289775 0
0.0139357 0.0342978 0
0.023679 0.028754 0
0.0232889 0.0338661 0
0.0197301 0.0285327 0
0.0188837 0.0340227 0
0.0276036 0.0291082 0
0.0274123 0.0339448 0
0.023679 0.028754 0
0.0232889 0.0338661 0
0.0315265 0.0294783 0
0.0314651 0.0341293 0
0.0276036 0.0291082 0
0.0274123 0.0339448 0
0.035472 0.0298335 0
0.0354978 0.0343582 0
0.0315265 0.0294783 0
0.0314651 0.0341293 0
0.0394424 0.0301643 0
0.0395341 0.0346004 0
0.035472 0.0298335 0
0.0354978 0.0343582 0
0.0434374 0.0304683 0
0.0435832 0.034841 0
0.0394424 0.0301643 0
0.0395341 0.0346004 0
0.0474551 0.0307464 0
0.0476496 0.035073 0
0.0434374 0.0304683 0
0.0435832 0.034841 0
0.051493 0.0310016 0
0.0517353 0.0352947 0
0.0474551 0.0307464 0
0.0476496 0.035073 0
0.0555489 0.0312385 0
0.0558418 0.0355072 0
0.051493 0.0310016 0
0.0517353 0.0352947 0
0.0596208 0.0314635 0
0.0599708 0.0357146 0
0.0555489 0.0312385 0
0.0558418 0.0355072 0
0.0637072 0.0316851 0
0.0641244 0.0359237 0
0.0596208 0.0314635 0
0.0599708 0.0357146 0
0.0678077 0.0319139 0
0.0683063 0.0361436 0
0.0637072 0.0316851 0
0.0641244 0.0359237 0
0.0719234 0.0321638 0
0.0725223 0.0363866 0
0.0678077 0.0319139 0
0.0683063 0.0361436 0
0.0760576 0.0324526 0
0.0767815 0.0366687 0
0.0719234 0.0321638 0
0.0725223 0.0363866 0
0.0200897 0.0231422 0
0.0197301 0.0285327 0
0.0166494 0.0221006 0
0.0148915 0.0289775 0
0.0238505 0.0239496 0
0.023679 0.028754 0
0.0200897 0.0231422 0
0.0197301 0.0285327 0
0.0276398 0.0245726 0
0.0276036 0.0291082 0
0.0238505 0.0239496 0
0.023679 0.028754 0
0.0314856 0.0250971 0
0.0315265 0.0294783 0
0.0276398 0.0245726 0
0.0276036 0.0291082 0
0.0353735 0.0255504 0
0.035472 0.0298335 0
0.0314856 0.0250971 0
0.0315265 0.0294783 0
0.0392979 0.0259472 0
0.0394424 0.0301643 0
0.0353735 0.0255504 0
0.035472 0.0298335 0
0.0432524 0.0262971 0
0.0434374 0.0304683 0
0.0392979 0.0259472 0
0.0394424 0.0301643 0
0.0472312 0.0266077 0
0.0474551 0.0307464 0
0.0432524 0.0262971 0
0.0434374 0.0304683 0
0.0512286 0.0268859 0
0.051493 0.0310016 0
0.0472312 0.0266077 0
0.0474551 0.0307464 0
0.0552394 0.0271388 0
0.0555489 0.0312385 0
0.0512286 0.0268859 0
0.051493 0.0310016 0
0.0592583 0.0273748 0
0.0596208 0.0314635 0
0.0552394 0.0271388 0
0.0555489 0.0312385 0
0.0632804 0.0276033 0
0.0637072 0.0316851 0
0.0592583 0.0273748 0
0.0596208 0.0314635 0
0.0673012 0.0278362 0
0.0678077 0.0319139 0
0.0632804 0.0276033 0
0.0637072 0.0316851 0
0.0713166 0.0280883 0
0.0719234 0.0321638 0
0.0673012 0.0278362 0
0.0678077 0.0319139 0
0.0753236 0.0283785 0
0.0760576 0.0324526 0
0.0713166 0.0280883 0
0.0719234 0.0321638 0
0.0202607 0.0190696 0
0.0200897 0.0231422 0
0.017177 0.0182759 0
0.0166494 0.0221006 0
0.0238487 0.0198279 0
0.0238505 0.0239496 0
0.0202607 0.0190696 0
0.0200897 0.0231422 0
0.0275777 0.0204989 0
0.0276398 0.0245726 0
0.0238487 0.0198279 0
0.0238505 0.0239496 0
0.0313751 0.021068 0
0.0314856 0.0250971 0
0.0275777 0.0204989 0
0.0276398 0.0245726 0
0.035226 0.0215561 0
0.0353735 0.0255504 0
0.0313751 0.021068 0
0.0314856 0.0250971 0
0.0391178 0.0219784 0
0.0392979 0.0259472 0
0.035226 0.0215561 0
0.0353735 0.0255504 0
0.0430415 0.0223464 0