# vtk DataFile Version 3.0
#This file was generated by the deal.II library on 2021/1/5 at 13:55:19
ASCII
DATASET UNSTRUCTURED_GRID

POINTS 2700 double
0.0322581 0.516129 0
0 0.516129 0
0.0322581 0.483871 0
0 0.483871 0
0.0322581 0.548387 0
0 0.548387 0
0.0322581 0.516129 0
0 0.516129 0
0.0322581 0.580645 0
0 0.580645 0
0.0322581 0.548387 0
0 0.548387 0
0.0322581 0.612903 0
0 0.612903 0
0.0322581 0.580645 0
0 0.580645 0
0.0322581 0.645161 0
0 0.645161 0
0.0322581 0.612903 0
0 0.612903 0
0.0322581 0.677419 0
0 0.677419 0
0.0322581 0.645161 0
0 0.645161 0
0.0322581 0.709677 0
0 0.709677 0
0.0322581 0.677419 0
0 0.677419 0
0.0322581 0.741935 0
0 0.741935 0
0.0322581 0.709677 0
0 0.709677 0
0.0322581 0.774193 0
0 0.774193 0
0.0322581 0.741935 0
0 0.741935 0
0.0322581 0.806452 0
0 0.806452 0
0.0322581 0.774193 0
0 0.774193 0
0.0322581 0.83871 0
0 0.83871 0
0.0322581 0.806452 0
0 0.806452 0
0.0322581 0.870968 0
0 0.870968 0
0.0322581 0.83871 0
0 0.83871 0
0.0322581 0.903226 0
0 0.903226 0
0.0322581 0.870968 0
0 0.870968 0
0.0322581 0.935484 0
0 0.935484 0
0.0322581 0.903226 0
0 0.903226 0
0.0322581 0.967742 0
0 0.967742 0
0.0322581 0.935484 0
0 0.935484 0
0.0645161 0.516129 0
0.0322581 0.516129 0
0.0645161 0.483871 0
0.0322581 0.483871 0
0.0645161 0.548387 0
0.0322581 0.548387 0
0.0645161 0.516129 0
0.0322581 0.516129 0
0.0645161 0.580645 0
0.0322581 0.580645 0
0.0645161 0.548387 0
0.0322581 0.548387 0
0.0645161 0.612903 0
0.0322581 0.612903 0
0.0645161 0.580645 0
0.0322581 0.580645 0
0.0645161 0.645161 0
0.0322581 0.645161 0
0.0645161 0.612903 0
0.0322581 0.612903 0
0.0645161 0.677419 0
0.0322581 0.677419 0
0.0645161 0.645161 0
0.0322581 0.645161 0
0.0645161 0.709677 0
0.0322581 0.709677 0
0.0645161 0.677419 0
0.0322581 0.677419 0
0.0645161 0.741935 0
0.0322581 0.741935 0
0.0645161 0.709677 0
0.0322581 0.709677 0
0.0645161 0.774193 0
0.0322581 0.774193 0
0.0645161 0.741935 0
0.0322581 0.741935 0
0.0645161 0.806452 0
0.0322581 0.806452 0
0.0645161 0.774193 0
0.0322581 0.774193 0
0.0645161 0.83871 0
0.0322581 0.83871 0
0.0645161 0.806452 0
0.0322581 0.806452 0
0.0645161 0.870968 0
0.0322581 0.870968 0
0.0645161 0.83871 0
0.0322581 0.83871 0
0.0645161 0.903226 0
0.0322581 0.903226 0
0.0645161 0.870968 0
0.0322581 0.870968 0
0.0645161 0.935484 0
0.0322581 0.935484 0
0.0645161 0.903226 0
0.0322581 0.903226 0
0.0645161 0.967742 0
0.0322581 0.967742 0
0.0645161 0.935484 0
0.0322581 0.935484 0
0.0967742 0.516129 0
0.0645161 0.516129 0
0.0967742 0.483871 0
0.0645161 0.483871 0
0.0967742 0.548387 0
0.0645161 0.548387 0
0.0967742 0.516129 0
0.0645161 0.516129 0
0.0967742 0.580645 0
0.0645161 0.580645 0
0.0967742 0.548387 0
0.0645161 0.548387 0
0.0967742 0.612903 0
0.0645161 0.612903 0
0.0967742 0.580645 0
0.0645161 0.580645 0
0.0967742 0.645161 0
0.0645161 0.645161 0
0.0967742 0.612903 0
0.0645161 0.612903 0
0.0967742 0.677419 0
0.0645161 0.677419 0
0.0967742 0.645161 0
0.0645161 0.645161 0
0.0967742 0.709677 0
0.0645161 0.709677 0
0.0967742 0.677419 0
0.0645161 0.677419 0
0.0967742 0.741935 0
0.0645161 0.741935 0
0.0967742 0.709677 0
0.0645161 0.709677 0
0.0967742 0.774193 0
0.0645161 0.774193 0
0.0967742 0.741935 0
0.0645161 0.741935 0
0.0967742 0.806452 0
0.0645161 0.806452 0
0.0967742 0.774193 0
0.0645161 0.774193 0
0.0967742 0.83871 0
0.0645161 0.83871 0
0.0967742 0.806452 0
0.0645161 0.806452 0
0.0967742 0.870968 0
0.0645161 0.870968 0
0.0967742 0.83871 0
0.0645161 0.83871 0
0.0967742 0.903226 0
0.0645161 0.903226 0
0.0967742 0.870968 0
0.0645161 0.870968 0
0.0967742 0.935484 0
0.0645161 0.935484 0
0.0967742 0.903226 0
0.0645161 0.903226 0
0.0967742 0.967742 0
0.0645161 0.967742 0
0.0967742 0.935484 0
0.0645161 0.935484 0
0.129032 0.516129 0
0.0967742 0.516129 0
0.129032 0.483871 0
0.0967742 0.483871 0
0.129032 0.548387 0
0.0967742 0.548387 0
0.129032 0.516129 0
0.0967742 0.516129 0
0.129032 0.580645 0
0.0967742 0.580645 0
0.129032 0.548387 0
0.0967742 0.548387 0
0.129032 0.612903 0
0.0967742 0.612903 0
0.129032 0.580645 0
0.0967742 0.580645 0
0.129032 0.645161 0
0.0967742 0.645161 0
0.129032 0.612903 0
0.0967742 0.612903 0
0.129032 0.677419 0
0.0967742 0.677419 0
0.129032 0.645161 0
0.0967742 0.645161 0
0.129032 0.709677 0
0.0967742 0.709677 0
0.129032 0.677419 0
0.0967742 0.677419 0
0.129032 0.741935 0
0.0967742 0.741935 0
0.129032 0.709677 0
0.0967742 0.709677 0
0.129032 0.774193 0
0.0967742 0.774193 0
0.129032 0.741935 0
0.0967742 0.741935 0
0.129032 0.806452 0
0.0967742 0.806452 0
0.129032 0.774193 0
0.0967742 0.774193 0
0.129032 0.83871 0
0.0967742 0.83871 0
0.129032 0.806452 0
0.0967742 0.806452 0
0.129032 0.870968 0
0.0967742 0.870968 0
0.129032 0.83871 0
0.0967742 0.83871 0
0.129032 0.903226 0
0.0967742 0.903226 0
0.129032 0.870968 0
0.0967742 0.870968 0
0.129032 0.935484 0
0.0967742 0.935484 0
0.129032 0.903226 0
0.0967742 0.903226 0
0.129032 0.967742 0
0.0967742 0.967742 0
0.129032 0.935484 0
0.0967742 0.935484 0
0.16129 0.516129 0
0.129032 0.516129 0
0.16129 0.483871 0
0.129032 0.483871 0
0.16129 0.548387 0
0.129032 0.548387 0
0.16129 0.516129 0
0.129032 0.516129 0
0.16129 0.580645 0
0.129032 0.580645 0
0.16129 0.548387 0
0.129032 0.548387 0
0.16129 0.612903 0
0.129032 0.612903 0
0.16129 0.580645 0
0.129032 0.580645 0
0.16129 0.645161 0
0.129032 0.645161 0
0.16129 0.612903 0
0.129032 0.612903 0
0.16129 0.677419 0
0.129032 0.677419 0
0.16129 0.645161 0
0.129032 0.645161 0
0.16129 0.709677 0
0.129032 0.709677 0
0.16129 0.677419 0
0.129032 0.677419 0
0.16129 0.741935 0
0.129032 0.741935 0
0.16129 0.709677 0
0.129032 0.709677 0
0.16129 0.774193 0
0.129032 0.774193 0
0.16129 0.741935 0
0.129032 0.741935 0
0.16129 0.806452 0
0.129032 0.806452 0
0.16129 0.774193 0
0.129032 0.774193 0
0.16129 0.83871 0
0.129032 0.83871 0
0.16129 0.806452 0
0.129032 0.806452 0
0.16129 0.870968 0
0.129032 0.870968 0
0.16129 0.83871 0
0.129032 0.83871 0
0.16129 0.903226 0
0.129032 0.903226 0
0.16129 0.870968 0
0.129032 0.870968 0
0.16129 0.935484 0
0.129032 0.935484 0
0.16129 0.903226 0
0.129032 0.903226 0
0.16129 0.967742 0
0.129032 0.967742 0
0.16129 0.935484 0
0.129032 0.935484 0
0.193548 0.516129 0
0.16129 0.516129 0
0.193548 0.483871 0
0.16129 0.483871 0
0.193548 0.548387 0
0.16129 0.548387 0
0.193548 0.516129 0
0.16129 0.516129 0
0.193548 0.580645 0
0.16129 0.580645 0
0.193548 0.548387 0
0.16129 0.548387 0
0.193548 0.612903 0
0.16129 0.612903 0
0.193548 0.580645 0
0.16129 0.580645 0
0.193548 0.645161 0
0.16129 0.645161 0
0.193548 0.612903 0
0.16129 0.612903 0
0.193548 0.677419 0
0.16129 0.677419 0
0.193548 0.645161 0
0.16129 0.645161 0
0.193548 0.709677 0
0.16129 0.709677 0
0.193548 0.677419 0
0.16129 0.677419 0
0.193548 0.741935 0
0.16129 0.741935 0
0.193548 0.709677 0
0.16129 0.709677 0
0.193548 0.774193 0
0.16129 0.774193 0
0.193548 0.741935 0
0.16129 0.741935 0
0.193548 0.806452 0
0.16129 0.806452 0
0.193548 0.774193 0
0.16129 0.774193 0
0.193548 0.83871 0
0.16129 0.83871 0
0.193548 0.806452 0
0.16129 0.806452 0
0.193548 0.870968 0
0.16129 0.870968 0
0.193548 0.83871 0
0.16129 0.83871 0
0.193548 0.903226 0
0.16129 0.903226 0
0.193548 0.870968 0
0.16129 0.870968 0
0.193548 0.935484 0
0.16129 0.935484 0
0.193548 0.903226 0
0.16129 0.903226 0
0.193548 0.967742 0
0.16129 0.967742 0
0.193548 0.935484 0
0.16129 0.935484 0
0.225806 0.516129 0
0.193548 0.516129 0
0.225806 0.483871 0
0.193548 0.483871 0
0.225806 0.548387 0
0.193548 0.548387 0
0.225806 0.516129 0
0.193548 0.516129 0
0.225806 0.580645 0
0.193548 0.580645 0
0.225806 0.548387 0
0.193548 0.548387 0
0.225806 0.612903 0
0.193548 0.612903 0
0.225806 0.580645 0
0.193548 0.580645 0
0.225806 0.645161 0
0.193548 0.645161 0
0.225806 0.612903 0
0.193548 0.612903 0
0.225806 0.677419 0
0.193548 0.677419 0
0.225806 0.645161 0
0.193548 0.645161 0
0.225806 0.709677 0
0.193548 0.709677 0
0.225806 0.677419 0
0.193548 0.677419 0
0.225806 0.741935 0
0.193548 0.741935 0
0.225806 0.709677 0
0.193548 0.709677 0
0.225806 0.774193 0
0.193548 0.774193 0
0.225806 0.741935 0
0.193548 0.741935 0
0.225806 0.806452 0
0.193548 0.806452 0
0.225806 0.774193 0
0.193548 0.774193 0
0.225806 0.83871 0
0.193548 0.83871 0
0.225806 0.806452 0
0.193548 0.806452 0
0.225806 0.870968 0
0.193548 0.870968 0
0.225806 0.83871 0
0.193548 0.83871 0
0.225806 0.903226 0
0.193548 0.903226 0
0.225806 0.870968 0
0.193548 0.870968 0
0.225806 0.935484 0
0.193548 0.935484 0
0.225806 0.903226 0
0.193548 0.903226 0
0.225806 0.967742 0
0.193548 0.967742 0
0.225806 0.935484 0
0.193548 0.935484 0
0.258064 0.516129 0
0.225806 0.516129 0
0.258064 0.483871 0
0.225806 0.483871 0
0.258064 0.548387 0
0.225806 0.548387 0
0.258064 0.516129 0
0.225806 0.516129 0
0.258064 0.580645 0
0.225806 0.580645 0
0.258064 0.548387 0
0.225806 0.548387 0
0.258064 0.612903 0
0.225806 0.612903 0
0.258064 0.580645 0
0.225806 0.580645 0
0.258064 0.645161 0
0.225806 0.645161 0
0.258064 0.612903 0
0.225806 0.612903 0
0.258064 0.677419 0
0.225806 0.677419 0
0.258064 0.645161 0
0.225806 0.645161 0
0.258064 0.709677 0
0.225806 0.709677 0
0.258064 0.677419 0
0.225806 0.677419 0
0.258064 0.741935 0
0.225806 0.741935 0
0.258064 0.709677 0
0.225806 0.709677 0
0.258064 0.774193 0
0.225806 0.774193 0
0.258064 0.741935 0
0.225806 0.741935 0
0.258064 0.806452 0
0.225806 0.806452 0
0.258064 0.774193 0
0.225806 0.774193 0
0.258064 0.83871 0
0.225806 0.83871 0
0.258064 0.806452 0
0.225806 0.806452 0
0.258064 0.870968 0
0.225806 0.870968 0
0.258064 0.83871 0
0.225806 0.83871 0
0.258064 0.903226 0
0.225806 0.903226 0
0.258064 0.870968 0
0.225806 0.870968 0
0.258064 0.935484 0
0.225806 0.935484 0
0.258064 0.903226 0
0.225806 0.903226 0
0.258064 0.967742 0
0.225806 0.967742 0
0.258064 0.935484 0
0.225806 0.935484 0
0.290323 0.516129 0
0.258064 0.516129 0
0.290323 0.483871 0
0.258064 0.483871 0
0.290323 0.548387 0
0.258064 0.548387 0
0.290323 0.516129 0
0.258064 0.516129 0
0.290323 0.580645 0
0.258064 0.580645 0
0.290323 0.548387 0
0.258064 0.548387 0
0.290323 0.612903 0
0.258064 0.612903 0
0.290323 0.580645 0
0.258064 0.580645 0
0.290323 0.645161 0
0.258064 0.645161 0
[...]
POINT_DATA 2700
VECTORS u double
0.0118922 0.0758713 0
0.0118743 0.08 0
0.00782922 0.0758877 0
0.00780896 0.08 0
0.0158685 0.0758568 0
0.0158528 0.08 0
0.0118922 0.0758713 0
0.0118743 0.08 0
0.0197691 0.075844 0
0.0197557 0.08 0
0.0158685 0.0758568 0
0.0158528 0.08 0
0.0236055 0.075833 0
0.0235944 0.08 0
0.0197691 0.075844 0
0.0197557 0.08 0
0.0273894 0.0758242 0
0.0273809 0.08 0
0.0236055 0.075833 0
0.0235944 0.08 0
0.0311333 0.0758176 0
0.0311276 0.08 0
0.0273894 0.0758242 0
0.0273809 0.08 0
0.0348505 0.0758135 0
0.0348477 0.08 0
0.0311333 0.0758176 0
0.0311276 0.08 0
0.0385551 0.075812 0
0.0385553 0.08 0
0.0348505 0.0758135 0
0.0348477 0.08 0
0.0422616 0.0758132 0
0.042265 0.08 0
0.0385551 0.075812 0
0.0385553 0.08 0
0.0459854 0.0758173 0
0.0459921 0.08 0
0.0422616 0.0758132 0
0.042265 0.08 0
0.0497424 0.0758243 0
0.0497525 0.08 0
0.0459854 0.0758173 0
0.0459921 0.08 0
0.0535489 0.0758342 0
0.0535625 0.08 0
0.0497424 0.0758243 0
0.0497525 0.08 0
0.057422 0.0758473 0
0.0574391 0.08 0
0.0535489 0.0758342 0
0.0535625 0.08 0
0.0613787 0.0758635 0
0.0613995 0.08 0
0.057422 0.0758473 0
0.0574391 0.08 0
0.0654366 0.0758828 0
0.0654609 0.08 0
0.0613787 0.0758635 0
0.0613995 0.08 0
0.0119459 0.0717477 0
0.0118922 0.0758713 0
0.00788988 0.0717804 0
0.00782922 0.0758877 0
0.0159155 0.0717186 0
0.0158685 0.0758568 0
0.0119459 0.0717477 0
0.0118922 0.0758713 0
0.0198094 0.071693 0
0.0197691 0.075844 0
0.0159155 0.0717186 0
0.0158685 0.0758568 0
0.0236386 0.0716712 0
0.0236055 0.075833 0
0.0198094 0.071693 0
0.0197691 0.075844 0
0.0274148 0.0716536 0
0.0273894 0.0758242 0
0.0236386 0.0716712 0
0.0236055 0.075833 0
0.0311505 0.0716407 0
0.0311333 0.0758176 0
0.0274148 0.0716536 0
0.0273894 0.0758242 0
0.034859 0.0716327 0
0.0348505 0.0758135 0
0.0311505 0.0716407 0
0.0311333 0.0758176 0
0.0385543 0.07163 0
0.0385551 0.075812 0
0.034859 0.0716327 0
0.0348505 0.0758135 0
0.0422513 0.0716328 0
0.0422616 0.0758132 0
0.0385543 0.07163 0
0.0385551 0.075812 0
0.0459652 0.0716412 0
0.0459854 0.0758173 0
0.0422513 0.0716328 0
0.0422616 0.0758132 0
0.049712 0.0716553 0
0.0497424 0.0758243 0
0.0459652 0.0716412 0
0.0459854 0.0758173 0
0.0535081 0.0716754 0
0.0535489 0.0758342 0
0.049712 0.0716553 0
0.0497424 0.0758243 0
0.0573705 0.0717015 0
0.057422 0.0758473 0
0.0535081 0.0716754 0
0.0535489 0.0758342 0
0.0613163 0.071734 0
0.0613787 0.0758635 0
0.0573705 0.0717015 0
0.057422 0.0758473 0
0.0653634 0.0717727 0
0.0654366 0.0758828 0
0.0613163 0.071734 0
0.0613787 0.0758635 0
0.0120353 0.0676338 0
0.0119459 0.0717477 0
0.00799058 0.0676827 0
0.00788988 0.0717804 0
0.015994 0.0675902 0
0.0159155 0.0717186 0
0.0120353 0.0676338 0
0.0119459 0.0717477 0
0.0198767 0.0675519 0
0.0198094 0.071693 0
0.015994 0.0675902 0
0.0159155 0.0717186 0
0.0236939 0.0675194 0
0.0236386 0.0716712 0
0.0198767 0.0675519 0
0.0198094 0.071693 0
0.0274571 0.0674934 0
0.0274148 0.0716536 0
0.0236939 0.0675194 0
0.0236386 0.0716712 0
0.0311789 0.0674746 0
0.0311505 0.0716407 0
0.0274571 0.0674934 0
0.0274148 0.0716536 0
0.0348727 0.0674634 0
0.034859 0.0716327 0
0.0311789 0.0674746 0
0.0311505 0.0716407 0
0.0385528 0.0674602 0
0.0385543 0.07163 0
0.0348727 0.0674634 0
0.034859 0.0716327 0
0.0422339 0.0674651 0
0.0422513 0.0716328 0
0.0385528 0.0674602 0
0.0385543 0.07163 0
0.0459314 0.0674784 0
0.0459652 0.0716412 0
0.0422339 0.0674651 0
0.0422513 0.0716328 0
0.0496614 0.0675001 0
0.049712 0.0716553 0
0.0459314 0.0674784 0
0.0459652 0.0716412 0
0.0534401 0.0675305 0
0.0535081 0.0716754 0
0.0496614 0.0675001 0
0.049712 0.0716553 0
0.0572846 0.0675699 0
0.0573705 0.0717015 0
0.0534401 0.0675305 0
0.0535081 0.0716754 0
0.0612123 0.0676187 0
0.0613163 0.071734 0
0.0572846 0.0675699 0
0.0573705 0.0717015 0
0.0652412 0.0676768 0
0.0653634 0.0717727 0
0.0612123 0.0676187 0
0.0613163 0.071734 0
0.0121602 0.063534 0
0.0120353 0.0676338 0
0.00813075 0.0635989 0
0.00799058 0.0676827 0
0.016104 0.0634761 0
0.015994 0.0675902 0
0.0121602 0.063534 0
0.0120353 0.0676338 0
0.019971 0.0634252 0
0.0198767 0.0675519 0
0.016104 0.0634761 0
0.015994 0.0675902 0
0.0237713 0.0633824 0
0.0236939 0.0675194 0
0.019971 0.0634252 0
0.0198767 0.0675519 0
0.0275162 0.0633485 0
0.0274571 0.0674934 0
0.0237713 0.0633824 0
0.0236939 0.0675194 0
0.0312184 0.0633247 0
0.0311789 0.0674746 0
0.0275162 0.0633485 0
0.0274571 0.0674934 0
0.0348915 0.0633113 0
0.0348727 0.0674634 0
0.0312184 0.0633247 0
0.0311789 0.0674746 0
0.03855 0.0633086 0
0.0385528 0.0674602 0
0.0348915 0.0633113 0
0.0348727 0.0674634 0
0.0422089 0.0633168 0
0.0422339 0.0674651 0
0.03855 0.0633086 0
0.0385528 0.0674602 0
0.0458837 0.0633358 0
0.0459314 0.0674784 0
0.0422089 0.0633168 0
0.0422339 0.0674651 0
0.0495902 0.0633658 0
0.0496614 0.0675001 0
0.0458837 0.0633358 0
0.0459314 0.0674784 0
0.0533448 0.063407 0
0.0534401 0.0675305 0
0.0495902 0.0633658 0
0.0496614 0.0675001 0
0.0571644 0.0634599 0
0.0572846 0.0675699 0
0.0533448 0.063407 0
0.0534401 0.0675305 0
0.0610666 0.0635249 0
0.0612123 0.0676187 0
0.0571644 0.0634599 0
0.0572846 0.0675699 0
0.0650699 0.0636026 0
0.0652412 0.0676768 0
0.0610666 0.0635249 0
0.0612123 0.0676187 0
0.0123204 0.0594524 0
0.0121602 0.063534 0
0.00830962 0.0595331 0
0.00813075 0.0635989 0
0.0162456 0.0593801 0
0.016104 0.0634761 0
0.0123204 0.0594524 0
0.0121602 0.063534 0
0.0200927 0.0593169 0
0.019971 0.0634252 0
0.0162456 0.0593801 0
0.016104 0.0634761 0
0.023871 0.0592642 0
0.0237713 0.0633824 0
0.0200927 0.0593169 0
0.019971 0.0634252 0
0.0275918 0.0592235 0
0.0275162 0.0633485 0
0.023871 0.0592642 0
0.0237713 0.0633824 0
0.0312682 0.059196 0
0.0312184 0.0633247 0
0.0275918 0.0592235 0
0.0275162 0.0633485 0
0.0349143 0.059182 0
0.0348915 0.0633113 0
0.0312682 0.059196 0
0.0312184 0.0633247 0
0.0385451 0.0591816 0
0.03855 0.0633086 0
0.0349143 0.059182 0
0.0348915 0.0633113 0
0.0421757 0.0591946 0
0.0422089 0.0633168 0
0.0385451 0.0591816 0
0.03855 0.0633086 0
0.0458215 0.0592207 0
0.0458837 0.0633358 0
0.0421757 0.0591946 0
0.0422089 0.0633168 0
0.0494983 0.0592599 0
0.0495902 0.0633658 0
0.0458215 0.0592207 0
0.0458837 0.0633358 0
0.0532221 0.0593125 0
0.0533448 0.063407 0
0.0494983 0.0592599 0
0.0495902 0.0633658 0
0.0570099 0.0593791 0
0.0571644 0.0634599 0
0.0532221 0.0593125 0
0.0533448 0.063407 0
0.0608793 0.0594607 0
0.0610666 0.0635249 0
0.0570099 0.0593791 0
0.0571644 0.0634599 0
0.0648491 0.0595579 0
0.0650699 0.0636026 0
0.0608793 0.0594607 0
0.0610666 0.0635249 0
0.0125159 0.0553918 0
0.0123204 0.0594524 0
0.0085263 0.055488 0
0.00830962 0.0595331 0
0.0164193 0.0553052 0
0.0162456 0.0593801 0
0.0125159 0.0553918 0
0.0123204 0.0594524 0
0.020242 0.0552299 0
0.0200927 0.0593169 0
0.0164193 0.0553052 0
0.0162456 0.0593801 0
0.0239927 0.0551683 0
0.023871 0.0592642 0
0.020242 0.0552299 0
0.0200927 0.0593169 0
0.0276832 0.0551225 0
0.0275918 0.0592235 0
0.0239927 0.0551683 0
0.023871 0.0592642 0
0.0313273 0.0550935 0
0.0312682 0.059196 0
0.0276832 0.0551225 0
0.0275918 0.0592235 0
0.0349401 0.0550814 0
0.0349143 0.059182 0
0.0313273 0.0550935 0
0.0312682 0.059196 0
0.0385369 0.0550858 0
0.0385451 0.0591816 0
0.0349401 0.0550814 0
0.0349143 0.059182 0
0.0421331 0.0551059 0
0.0421757 0.0591946 0
0.0385369 0.0550858 0
0.0385451 0.0591816 0
0.0457441 0.0551409 0
0.0458215 0.0592207 0
0.0421331 0.0551059 0
0.0421757 0.0591946 0
0.0493852 0.0551906 0
0.0494983 0.0592599 0
0.0457441 0.0551409 0
0.0458215 0.0592207 0
0.0530721 0.0552554 0
0.0532221 0.0593125 0
0.0493852 0.0551906 0
0.0494983 0.0592599 0
0.0568214 0.0553361 0
0.0570099 0.0593791 0
0.0530721 0.0552554 0
0.0532221 0.0593125 0
0.0606506 0.0554342 0
0.0608793 0.0594607 0
0.0568214 0.0553361 0
0.0570099 0.0593791 0
0.0645789 0.0555509 0
0.0648491 0.0595579 0
0.0606506 0.0554342 0
0.0608793 0.0594607 0
0.012747 0.0513537 0
0.0125159 0.0553918 0
0.00877985 0.0514654 0
0.0085263 0.055488 0
0.0166257 0.0512529 0
0.0164193 0.0553052 0
0.012747 0.0513537 0
0.0125159 0.0553918 0
0.0204192 0.0511662 0
0.020242 0.0552299 0
0.0166257 0.0512529 0
0.0164193 0.0553052 0
0.024136 0.0510973 0
0.0239927 0.0551683 0
0.0204192 0.0511662 0
0.020242 0.0552299 0
0.0277891 0.051049 0
0.0276832 0.0551225 0
0.024136 0.0510973 0
0.0239927 0.0551683 0
0.0313938 0.051022 0
0.0313273 0.0550935 0
0.0277891 0.051049 0
0.0276832 0.0551225 0
0.0349665 0.0510157 0
0.0349401 0.0550814 0
0.0313938 0.051022 0
0.0313273 0.0550935 0
0.0385233 0.0510284 0
0.0385369 0.0550858 0
0.0349665 0.0510157 0
0.0349401 0.0550814 0
0.0420796 0.0510585 0
0.0421331 0.0551059 0
0.0385233 0.0510284 0
0.0385369 0.0550858 0
0.0456505 0.0511048 0
0.0457441 0.0551409 0
0.0420796 0.0510585 0
0.0421331 0.0551059 0
0.0492505 0.0511667 0
0.0493852 0.0551906 0
0.0456505 0.0511048 0
0.0457441 0.0551409 0
0.0528949 0.0512447 0
0.0530721 0.0552554 0
0.0492505 0.0511667 0
0.0493852 0.0551906 0
0.0565993 0.0513399 0
0.0568214 0.0553361 0
0.0528949 0.0512447 0
0.0530721 0.0552554 0
0.0603811 0.0514543 0
0.0606506 0.0554342 0
0.0565993 0.0513399 0
0.0568214 0.0553361 0
0.0642594 0.0515902 0
0.0645789 0.0555509 0
0.0603811 0.0514543 0
0.0606506 0.0554342 0
0.0130147 0.047338 0
0.012747 0.0513537 0
0.00906952 0.0474652 0
0.00877985 0.0514654 0
0.0168662 0.0472229 0
0.0166257 0.0512529 0
0.0130147 0.047338 0
0.012747 0.0513537 0
0.0206247 0.0471258 0
0.0204192 0.0511662 0
0.0168662 0.0472229 0
0.0166257 0.0512529 0
0.0242998 0.0470527 0
0.024136 0.0510973 0
0.0206247 0.0471258 0
0.0204192 0.0511662 0
0.027907 0.0470064 0
0.0277891 0.051049 0
0.0242998 0.0470527 0
0.024136 0.0510973 0
0.0314646 0.0469867 0
0.0313938 0.051022 0
0.027907 0.0470064 0
0.0277891 0.051049 0
0.0349905 0.0469914 0
0.0349665 0.0510157 0
0.0314646 0.0469867 0
0.0313938 0.051022 0
0.0385016 0.0470173 0
0.0385233 0.0510284 0
0.0349905 0.0469914 0
0.0349665 0.0510157 0
0.0420131 0.0470614 0
0.0420796 0.0510585 0
0.0385016 0.0470173 0
0.0385233 0.0510284 0
0.0455392 0.0471219 0
0.0456505 0.0511048 0
0.0420131 0.0470614 0
0.0420796 0.0510585 0
0.0490937 0.0471979 0
0.0492505 0.0511667 0
0.0455392 0.0471219 0
0.0456505 0.0511048 0
0.0526905 0.04729 0
0.0528949 0.0512447 0
0.0490937 0.0471979 0
0.0492505 0.0511667 0
0.0563444 0.0474 0
0.0565993 0.0513399 0
0.0526905 0.04729 0
0.0528949 0.0512447 0
0.0600718 0.0475305 0
0.0603811 0.0514543 0
0.0563444 0.0474 0
0.0565993 0.0513399 0
0.0638916 0.0476853 0
0.0642594 0.0515902 0
0.0600718 0.0475305 0
0.0603811 0.0514543 0
0.0133212 0.0433414 0
0.0130147 0.047338 0
0.00939503 0.0434846 0
0.00906952 0.0474652 0
0.0171427 0.0432118 0
0.0168662 0.0472229 0
0.0133212 0.0433414 0
0.0130147 0.047338 0
0.0208584 0.0431068 0
0.0206247 0.0471258 0
0.0171427 0.0432118 0
0.0168662 0.0472229 0
0.0244815 0.0430347 0
0.0242998 0.0470527 0
0.0208584 0.0431068 0
0.0206247 0.0471258 0
0.0280328 0.0429979 0
0.027907 0.0470064 0
0.0244815 0.0430347 0
0.0242998 0.0470527 0
0.0315347 0.0429935 0
0.0314646 0.0469867 0
0.0280328 0.0429979 0
0.027907 0.0470064 0
0.0350073 0.0430166 0
0.0349905 0.0469914 0
0.0315347 0.0429935 0
0.0314646 0.0469867 0
0.0384679 0.0430617 0
0.0385016 0.0470173 0
0.0350073 0.0430166 0
0.0349905 0.0469914 0
0.0419307 0.0431246 0
0.0420131 0.0470614 0
0.0384679 0.0430617 0
0.0385016 0.0470173 0
0.0454088 0.0432026 0
0.0455392 0.0471219 0
0.0419307 0.0431246 0
0.0420131 0.0470614 0
0.0489143 0.0432948 0
0.0490937 0.0471979 0
0.0454088 0.0432026 0
0.0455392 0.0471219 0
0.0524595 0.043402 0
0.0526905 0.04729 0
0.0489143 0.0432948 0
0.0490937 0.0471979 0
0.0560578 0.0435268 0
0.0563444 0.0474 0
0.0524595 0.043402 0
0.0526905 0.04729 0
0.0597242 0.043673 0
0.0600718 0.0475305 0
0.0560578 0.0435268 0
0.0563444 0.0474 0
0.063477 0.0438457 0
0.0638916 0.0476853 0
0.0597242 0.043673 0
0.0600718 0.0475305 0
0.0136708 0.0393557 0
0.0133212 0.0433414 0
0.00975735 0.0395163 0
0.00939503 0.0434846 0
0.0174582 0.0392121 0
0.0171427 0.0432118 0
0.0136708 0.0393557 0
0.0133212 0.0433414 0
0.0211188 0.0391045 0
0.0208584 0.0431068 0
0.0174582 0.0392121 0
0.0171427 0.0432118 0
0.0246754 0.0390435 0
0.0244815 0.0430347 0
0.0211188 0.0391045 0
0.0208584 0.0431068 0
0.0281588 0.0390281 0
0.0280328 0.0429979 0
0.0246754 0.0390435 0
0.0244815 0.0430347 0
0.0315967 0.0390506 0
0.0315347 0.0429935 0
0.0281588 0.0390281 0
0.0280328 0.0429979 0
0.0350108 0.0391016 0
0.0350073 0.0430166 0
0.0315967 0.0390506 0
0.0315347 0.0429935 0
0.0384175 0.0391731 0
0.0384679 0.0430617 0
0.0350108 0.0391016 0
0.0350073 0.0430166 0
0.0418295 0.0392597 0
0.0419307 0.0431246 0
0.0384175 0.0391731 0
0.0384679 0.0430617 0
0.0452577 0.0393584 0
0.0454088 0.0432026 0
0.0418295 0.0392597 0
0.0419307 0.0431246 0
0.0487121 0.0394686 0
0.0489143 0.0432948 0
0.0452577 0.0393584 0
0.0454088 0.0432026 0
0.0522029 0.0395916 0
0.0524595 0.043402 0
0.0487121 0.0394686 0
0.0489143 0.0432948 0
0.0557414 0.039731 0
0.0560578 0.0435268 0
0.0522029 0.0395916 0
0.0524595 0.043402 0
0.059341 0.0398919 0
0.0597242 0.043673 0
0.0557414 0.039731 0
0.0560578 0.0435268 0
0.0630182 0.0400813 0
0.063477 0.0438457 0
0.059341 0.0398919 0
0.0597242 0.043673 0
0.0140725 0.0353651 0
0.0136708 0.0393557 0
0.01016 0.0355453 0
0.00975735 0.0395163 0
0.0178156 0.0352092 0
0.0174582 0.0392121 0
0.0140725 0.0353651 0
0.0136708 0.0393557 0
0.0213997 0.0351119 0
0.0211188 0.0391045 0
0.0178156 0.0352092 0
0.0174582 0.0392121 0
0.0248705 0.0350807 0
0.0246754 0.0390435 0
0.0213997 0.0351119 0
0.0211188 0.0391045 0
0.0282732 0.0351058 0
0.0281588 0.0390281 0
0.0248705 0.0350807 0
0.0246754 0.0390435 0
0.0316405 0.0351701 0
0.0315967 0.0390506 0
0.0282732 0.0351058 0
0.0281588 0.0390281 0
0.0349933 0.0352598 0
0.0350108 0.0391016 0
0.0316405 0.0351701 0
0.0315967 0.0390506 0
0.0383454 0.035365 0
0.0384175 0.0391731 0
0.0349933 0.0352598 0
0.0350108 0.0391016 0
0.0417065 0.03548 0
0.0418295 0.0392597 0
0.0383454 0.035365 0
0.0384175 0.0391731 0
0.0450848 0.0356021 0
0.0452577 0.0393584 0
0.0417065 0.03548 0
0.0418295 0.0392597 0
0.0484875 0.0357313 0
0.0487121 0.0394686 0
0.0450848 0.0356021 0
0.0452577 0.0393584 0
0.0519222 0.0358703 0
0.0522029 0.0395916 0
0.0484875 0.0357313 0
0.0487121 0.0394686 0
0.0553979 0.0360235 0
0.0557414 0.039731 0
0.0519222 0.0358703 0
0.0522029 0.0395916 0
0.0589255 0.0361978 0
0.059341 0.0398919 0
0.0553979 0.0360235 0
0.0557414 0.039731 0
0.0625193 0.036402 0
0.0630182 0.0400813 0
0.0589255 0.0361978 0
0.059341 0.0398919 0
0.0145426 0.0313362 0
0.0140725 0.0353651 0
0.0106145 0.0315447 0
0.01016 0.0355453 0
0.0182135 0.0311816 0
0.0178156 0.0352092 0
0.0145426 0.0313362 0
0.0140725 0.0353651 0
0.0216847 0.0311228 0
0.0213997 0.0351119 0
0.0182135 0.0311816 0
0.0178156 0.0352092 0
0.0250457 0.031157 0
0.0248705 0.0350807 0
0.0216847 0.0311228 0
0.0213997 0.0351119 0
0.0283592 0.0312482 0
0.0282732 0.0351058 0
0.0250457 0.031157 0
0.0248705 0.0350807 0
0.0316544 0.031371 0
0.0316405 0.0351701 0
0.0283592 0.0312482 0
0.0282732 0.0351058 0
0.0349472 0.0315094 0
0.0349933 0.0352598 0
0.0316544 0.031371 0
0.0316405 0.0351701 0
0.038247 0.031654 0
0.0383454 0.035365 0
0.0349472 0.0315094 0
0.0349933 0.0352598 0
0.0415596 0.0318002 0
0.0417065 0.03548 0
0.038247 0.031654 0
0.0383454 0.035365 0
0.0448897 0.0319468 0
0.0450848 0.0356021 0
0.0415596 0.0318002 0
0.0417065 0.03548 0
0.0482415 0.0320952 0
0.0484875 0.0357313 0
0.0448897 0.0319468 0
0.0450848 0.0356021 0
0.0516199 0.0322492 0
0.0519222 0.0358703 0
0.0482415 0.0320952 0
0.0484875 0.0357313 0
0.0550309 0.032415 0
0.0553979 0.0360235 0
0.0516199 0.0322492 0
0.0519222 0.0358703 0
0.0584825 0.0326006 0
0.0589255 0.0361978 0
0.0550309 0.032415 0
0.0553979 0.0360235 0
0.0619859 0.0328171 0
0.0625193 0.036402 0
0.0584825 0.0326006 0
0.0589255 0.0361978 0
0.015107 0.0272182 0
0.0145426 0.0313362 0
0.0111486 0.0274382 0
0.0106145 0.0315447 0
0.0186311 0.0270929 0
0.0182135 0.0311816 0
0.015107 0.0272182 0
0.0145426 0.0313362 0
0.0219298 0.0271558 0
0.0216847 0.0311228 0
0.0186311 0.0270929 0
0.0182135 0.0311816 0
0.0251721 0.0273035 0
0.0250457 0.031157 0
0.0219298 0.0271558 0
0.0216847 0.0311228 0
0.0283983 0.0274865 0
0.0283592 0.0312482 0
0.0251721 0.0273035 0
0.0250457 0.031157 0
0.0316273 0.0276803 0
0.0316544 0.031371 0
0.0283983 0.0274865 0
0.0283592 0.0312482 0
0.0348666 0.0278728 0
0.0349472 0.0315094 0
0.0316273 0.0276803 0
0.0316544 0.031371 0
0.0381196 0.0280584 0
0.038247 0.031654 0
0.0348666 0.0278728 0
0.0349472 0.0315094 0
0.0413882 0.0282357 0
0.0415596 0.0318002 0
0.0381196 0.0280584 0
0.038247 0.031654 0
0.0446735 0.0284057 0
0.0448897 0.0319468 0
0.0413882 0.0282357 0
0.0415596 0.0318002 0
0.0479766 0.0285717 0
0.0482415 0.0320952 0
0.0446735 0.0284057 0
0.0448897 0.0319468 0
0.0512995 0.0287389 0
0.0516199 0.0322492 0
0.0479766 0.0285717 0
0.0482415 0.0320952 0
0.054645 0.0289149 0
0.0550309 0.032415 0
0.0512995 0.0287389 0
0.0516199 0.0322492 0
0.0580178 0.0291093 0
0.0584825 0.0326006 0
0.054645 0.0289149 0
0.0550309 0.032415 0
0.0614252 0.029335 0
0.0619859 0.0328171 0
0.0580178 0.0291093 0
0.0584825 0.0326006 0
0.0157841 0.0228262 0
0.015107 0.0272182 0
0.0119132 0.023182 0
0.0111486 0.0274382 0
0.0189432 0.0230032 0
0.0186311 0.0270929 0
0.0157841 0.0228262 0
0.015107 0.0272182 0
0.0220829 0.0232866 0
0.0219298 0.0271558 0
0.0189432 0.0230032 0
0.0186311 0.0270929 0
0.0252212 0.0235826 0
0.0251721 0.0273035 0
0.0220829 0.0232866 0
0.0219298 0.0271558 0
0.0283776 0.0238668 0
0.0283983 0.0274865 0
0.0252212 0.0235826 0
0.0251721 0.0273035 0
0.0315539 0.0241314 0
0.0316273 0.0276803 0
0.0283776 0.0238668 0
0.0283983 0.0274865 0
0.0347499 0.0243746 0
0.0348666 0.0278728 0
0.0315539 0.0241314 0
0.0316273 0.0276803 0
0.037964 0.0245971 0
0.0381196 0.0280584 0
0.0347499 0.0243746 0
0.0348666 0.0278728 0
0.0411944 0.0248013 0
0.0413882 0.0282357 0
0.037964 0.0245971 0
0.0381196 0.0280584 0
0.0444391 0.0249908 0
0.0446735 0.0284057 0
0.0411944 0.0248013 0
0.0413882 0.0282357 0
0.0476966 0.0251708 0
0.0479766 0.0285717 0
0.0444391 0.0249908 0
0.0446735 0.0284057 0
0.0509657 0.025348 0
0.0512995 0.0287389 0
0.0476966 0.0251708 0
0.0479766 0.0285717 0
0.0542462 0.0255311 0
0.054645 0.0289149 0
0.0509657 0.025348 0
0.0512995 0.0287389 0
0.0575387 0.025731 0
0.0580178 0.0291093 0
0.0542462 0.0255311 0
0.054645 0.0289149 0
0.0608461 0.0259621 0
0.0614252 0.029335 0
0.0575387 0.025731 0
0.0580178 0.0291093 0
0.0160718 0.0185138 0
0.0157841 0.0228262 0
0.0133195 0.0176804 0
0.0119132 0.023182 0
0.0190804 0.0191597 0
0.0189432 0.0230032 0
0.0160718 0.0185138 0
0.0157841 0.0228262 0
0.0221118 0.0196581 0
0.0220829 0.0232866 0
0.0190804 0.0191597 0
0.0189432 0.0230032 0
0.0251884 0.0200777 0
0.0252212 0.0235826 0
0.0221118 0.0196581 0
0.0220829 0.0232866 0
0.0282988 0.0204403 0
0.0283776 0.0238668 0
0.0251884 0.0200777 0
0.0252212 0.0235826 0
0.0314383 0.0207578 0
0.0315539 0.0241314 0
0.0282988 0.0204403 0
0.0283776 0.0238668 0
0.0346019 0.0210377 0
0.0347499 0.0243746 0
0.0314383 0.0207578 0
0.0315539 0.0241314 0
0.0377849 0.0212861 0
0.037964 0.0245971 0
0.0346019 0.0210377 0
0.0347499 0.0243746 0
0.0409829 0.0215087 0
0.0411944 0.0248013 0
0.0377849 0.0212861 0
0.037964 0.0245971 0
0.0441915 0.0217111 0
0.0444391 0.0249908 0
0.0409829 0.0215087 0
0.0411944 0.0248013 0
0.0474066 0.0218998 0
0.0476966 0.0251708 0
0.0441915 0.0217111 0
0.0444391 0.0249908 0
0.0506243 0.0220827 0
0.0509657 0.025348 0
0.0474066 0.0218998 0
0.0476966 0.0251708 0
0.053841 0.022269 0
0.0542462 0.0255311 0
0.0506243 0.0220827 0
0.0509657 0.025348 0
0.0570533 0.0224706 0
0.0575387 0.025731 0
0.053841 0.022269 0
0.0542462 0.0255311 0
0.0602589 0.0227028 0
0.0608461 0.0259621 0
0.0570533 0.0224706 0
0.0575387 0.025731 0
0.0162086 0.0152557 0
0.0160718 0.0185138 0
0.0137416 0.0146207 0
0.0133195 0.0176804 0
0.019079 0.0158623 0
0.0190804 0.0191597 0
0.0162086 0.0152557 0
0.0160718 0.0185138 0
0.0220621 0.0163991 0
0.0221118 0.0196581 0
0.019079 0.0158623 0
0.0190804 0.0191597 0
0.0251001 0.0168544 0
0.0251884 0.0200777 0
0.0220621 0.0163991 0
0.0221118 0.0196581 0
0.0281808 0.0172449 0
0.0282988 0.0204403 0
0.0251001 0.0168544 0
0.0251884 0.0200777 0
0.0312943 0.0175827 0
0.0314383 0.0207578 0
0.0281808 0.0172449 0