# vtk DataFile Version 3.0
#This file was generated by the deal.II library on 2021/1/5 at 13:55:19
ASCII
DATASET UNSTRUCTURED_GRID

POINTS 2700 double
0.0322581 0.516129 0
0 0.516129 0
0.0322581 0.483871 0
0 0.483871 0
0.0322581 0.548387 0
0 0.548387 0
0.0322581 0.516129 0
0 0.516129 0
0.0322581 0.580645 0
0 0.580645 0
0.0322581 0.548387 0
0 0.548387 0
0.0322581 0.612903 0
0 0.612903 0
0.0322581 0.580645 0
0 0.580645 0
0.0322581 0.645161 0
0 0.645161 0
0.0322581 0.612903 0
0 0.612903 0
0.0322581 0.677419 0
0 0.677419 0
0.0322581 0.645161 0
0 0.645161 0
0.0322581 0.709677 0
0 0.709677 0
0.0322581 0.677419 0
0 0.677419 0
0.0322581 0.741935 0
0 0.741935 0
0.0322581 0.709677 0
0 0.709677 0
0.0322581 0.774193 0
0 0.774193 0
0.0322581 0.741935 0
0 0.741935 0
0.0322581 0.806452 0
0 0.806452 0
0.0322581 0.774193 0
0 0.774193 0
0.0322581 0.83871 0
0 0.83871 0
0.0322581 0.806452 0
0 0.806452 0
0.0322581 0.870968 0
0 0.870968 0
0.0322581 0.83871 0
0 0.83871 0
0.0322581 0.903226 0
0 0.903226 0
0.0322581 0.870968 0
0 0.870968 0
0.0322581 0.935484 0
0 0.935484 0
0.0322581 0.903226 0
0 0.903226 0
0.0322581 0.967742 0
0 0.967742 0
0.0322581 0.935484 0
0 0.935484 0
0.0645161 0.516129 0
0.0322581 0.516129 0
0.0645161 0.483871 0
0.0322581 0.483871 0
0.0645161 0.548387 0
0.0322581 0.548387 0
0.0645161 0.516129 0
0.0322581 0.516129 0
0.0645161 0.580645 0
0.0322581 0.580645 0
0.0645161 0.548387 0
0.0322581 0.548387 0
0.0645161 0.612903 0
0.0322581 0.612903 0
0.0645161 0.580645 0
0.0322581 0.580645 0
0.0645161 0.645161 0
0.0322581 0.645161 0
0.0645161 0.612903 0
0.0322581 0.612903 0
0.0645161 0.677419 0
0.0322581 0.677419 0
0.0645161 0.645161 0
0.0322581 0.645161 0
0.0645161 0.709677 0
0.0322581 0.709677 0
0.0645161 0.677419 0
0.0322581 0.677419 0
0.0645161 0.741935 0
0.0322581 0.741935 0
0.0645161 0.709677 0
0.0322581 0.709677 0
0.0645161 0.774193 0
0.0322581 0.774193 0
0.0645161 0.741935 0
0.0322581 0.741935 0
0.0645161 0.806452 0
0.0322581 0.806452 0
0.0645161 0.774193 0
0.0322581 0.774193 0
0.0645161 0.83871 0
0.0322581 0.83871 0
0.0645161 0.806452 0
0.0322581 0.806452 0
0.0645161 0.870968 0
0.0322581 0.870968 0
0.0645161 0.83871 0
0.0322581 0.83871 0
0.0645161 0.903226 0
0.0322581 0.903226 0
0.0645161 0.870968 0
0.0322581 0.870968 0
0.0645161 0.935484 0
0.0322581 0.935484 0
0.0645161 0.903226 0
0.0322581 0.903226 0
0.0645161 0.967742 0
0.0322581 0.967742 0
0.0645161 0.935484 0
0.0322581 0.935484 0
0.0967742 0.516129 0
0.0645161 0.516129 0
0.0967742 0.483871 0
0.0645161 0.483871 0
0.0967742 0.548387 0
0.0645161 0.548387 0
0.0967742 0.516129 0
0.0645161 0.516129 0
0.0967742 0.580645 0
0.0645161 0.580645 0
0.0967742 0.548387 0
0.0645161 0.548387 0
0.0967742 0.612903 0
0.0645161 0.612903 0
0.0967742 0.580645 0
0.0645161 0.580645 0
0.0967742 0.645161 0
0.0645161 0.645161 0
0.0967742 0.612903 0
0.0645161 0.612903 0
0.0967742 0.677419 0
0.0645161 0.677419 0
0.0967742 0.645161 0
0.0645161 0.645161 0
0.0967742 0.709677 0
0.0645161 0.709677 0
0.0967742 0.677419 0
0.0645161 0.677419 0
0.0967742 0.741935 0
0.0645161 0.741935 0
0.0967742 0.709677 0
0.0645161 0.709677 0
0.0967742 0.774193 0
0.0645161 0.774193 0
0.0967742 0.741935 0
0.0645161 0.741935 0
0.0967742 0.806452 0
0.0645161 0.806452 0
0.0967742 0.774193 0
0.0645161 0.774193 0
0.0967742 0.83871 0
0.0645161 0.83871 0
0.0967742 0.806452 0
0.0645161 0.806452 0
0.0967742 0.870968 0
0.0645161 0.870968 0
0.0967742 0.83871 0
0.0645161 0.83871 0
0.0967742 0.903226 0
0.0645161 0.903226 0
0.0967742 0.870968 0
0.0645161 0.870968 0
0.0967742 0.935484 0
0.0645161 0.935484 0
0.0967742 0.903226 0
0.0645161 0.903226 0
0.0967742 0.967742 0
0.0645161 0.967742 0
0.0967742 0.935484 0
0.0645161 0.935484 0
0.129032 0.516129 0
0.0967742 0.516129 0
0.129032 0.483871 0
0.0967742 0.483871 0
0.129032 0.548387 0
0.0967742 0.548387 0
0.129032 0.516129 0
0.0967742 0.516129 0
0.129032 0.580645 0
0.0967742 0.580645 0
0.129032 0.548387 0
0.0967742 0.548387 0
0.129032 0.612903 0
0.0967742 0.612903 0
0.129032 0.580645 0
0.0967742 0.580645 0
0.129032 0.645161 0
0.0967742 0.645161 0
0.129032 0.612903 0
0.0967742 0.612903 0
0.129032 0.677419 0
0.0967742 0.677419 0
0.129032 0.645161 0
0.0967742 0.645161 0
0.129032 0.709677 0
0.0967742 0.709677 0
0.129032 0.677419 0
0.0967742 0.677419 0
0.129032 0.741935 0
0.0967742 0.741935 0
0.129032 0.709677 0
0.0967742 0.709677 0
0.129032 0.774193 0
0.0967742 0.774193 0
0.129032 0.741935 0
0.0967742 0.741935 0
0.129032 0.806452 0
0.0967742 0.806452 0
0.129032 0.774193 0
0.0967742 0.774193 0
0.129032 0.83871 0
0.0967742 0.83871 0
0.129032 0.806452 0
0.0967742 0.806452 0
0.129032 0.870968 0
0.0967742 0.870968 0
0.129032 0.83871 0
0.0967742 0.83871 0
0.129032 0.903226 0
0.0967742 0.903226 0
0.129032 0.870968 0
0.0967742 0.870968 0
0.129032 0.935484 0
0.0967742 0.935484 0
0.129032 0.903226 0
0.0967742 0.903226 0
0.129032 0.967742 0
0.0967742 0.967742 0
0.129032 0.935484 0
0.0967742 0.935484 0
0.16129 0.516129 0
0.129032 0.516129 0
0.16129 0.483871 0
0.129032 0.483871 0
0.16129 0.548387 0
0.129032 0.548387 0
0.16129 0.516129 0
0.129032 0.516129 0
0.16129 0.580645 0
0.129032 0.580645 0
0.16129 0.548387 0
0.129032 0.548387 0
0.16129 0.612903 0
0.129032 0.612903 0
0.16129 0.580645 0
0.129032 0.580645 0
0.16129 0.645161 0
0.129032 0.645161 0
0.16129 0.612903 0
0.129032 0.612903 0
0.16129 0.677419 0
0.129032 0.677419 0
0.16129 0.645161 0
0.129032 0.645161 0
0.16129 0.709677 0
0.129032 0.709677 0
0.16129 0.677419 0
0.129032 0.677419 0
0.16129 0.741935 0
0.129032 0.741935 0
0.16129 0.709677 0
0.129032 0.709677 0
0.16129 0.774193 0
0.129032 0.774193 0
0.16129 0.741935 0
0.129032 0.741935 0
0.16129 0.806452 0
0.129032 0.806452 0
0.16129 0.774193 0
0.129032 0.774193 0
0.16129 0.83871 0
0.129032 0.83871 0
0.16129 0.806452 0
0.129032 0.806452 0
0.16129 0.870968 0
0.129032 0.870968 0
0.16129 0.83871 0
0.129032 0.83871 0
0.16129 0.903226 0
0.129032 0.903226 0
0.16129 0.870968 0
0.129032 0.870968 0
0.16129 0.935484 0
0.129032 0.935484 0
0.16129 0.903226 0
0.129032 0.903226 0
0.16129 0.967742 0
0.129032 0.967742 0
0.16129 0.935484 0
0.129032 0.935484 0
0.193548 0.516129 0
0.16129 0.516129 0
0.193548 0.483871 0
0.16129 0.483871 0
0.193548 0.548387 0
0.16129 0.548387 0
0.193548 0.516129 0
0.16129 0.516129 0
0.193548 0.580645 0
0.16129 0.580645 0
0.193548 0.548387 0
0.16129 0.548387 0
0.193548 0.612903 0
0.16129 0.612903 0
0.193548 0.580645 0
0.16129 0.580645 0
0.193548 0.645161 0
0.16129 0.645161 0
0.193548 0.612903 0
0.16129 0.612903 0
0.193548 0.677419 0
0.16129 0.677419 0
0.193548 0.645161 0
0.16129 0.645161 0
0.193548 0.709677 0
0.16129 0.709677 0
0.193548 0.677419 0
0.16129 0.677419 0
0.193548 0.741935 0
0.16129 0.741935 0
0.193548 0.709677 0
0.16129 0.709677 0
0.193548 0.774193 0
0.16129 0.774193 0
0.193548 0.741935 0
0.16129 0.741935 0
0.193548 0.806452 0
0.16129 0.806452 0
0.193548 0.774193 0
0.16129 0.774193 0
0.193548 0.83871 0
0.16129 0.83871 0
0.193548 0.806452 0
0.16129 0.806452 0
0.193548 0.870968 0
0.16129 0.870968 0
0.193548 0.83871 0
0.16129 0.83871 0
0.193548 0.903226 0
0.16129 0.903226 0
0.193548 0.870968 0
0.16129 0.870968 0
0.193548 0.935484 0
0.16129 0.935484 0
0.193548 0.903226 0
0.16129 0.903226 0
0.193548 0.967742 0
0.16129 0.967742 0
0.193548 0.935484 0
0.16129 0.935484 0
0.225806 0.516129 0
0.193548 0.516129 0
0.225806 0.483871 0
0.193548 0.483871 0
0.225806 0.548387 0
0.193548 0.548387 0
0.225806 0.516129 0
0.193548 0.516129 0
0.225806 0.580645 0
0.193548 0.580645 0
0.225806 0.548387 0
0.193548 0.548387 0
0.225806 0.612903 0
0.193548 0.612903 0
0.225806 0.580645 0
0.193548 0.580645 0
0.225806 0.645161 0
0.193548 0.645161 0
0.225806 0.612903 0
0.193548 0.612903 0
0.225806 0.677419 0
0.193548 0.677419 0
0.225806 0.645161 0
0.193548 0.645161 0
0.225806 0.709677 0
0.193548 0.709677 0
0.225806 0.677419 0
0.193548 0.677419 0
0.225806 0.741935 0
0.193548 0.741935 0
0.225806 0.709677 0
0.193548 0.709677 0
0.225806 0.774193 0
0.193548 0.774193 0
0.225806 0.741935 0
0.193548 0.741935 0
0.225806 0.806452 0
0.193548 0.806452 0
0.225806 0.774193 0
0.193548 0.774193 0
0.225806 0.83871 0
0.193548 0.83871 0
0.225806 0.806452 0
0.193548 0.806452 0
0.225806 0.870968 0
0.193548 0.870968 0
0.225806 0.83871 0
0.193548 0.83871 0
0.225806 0.903226 0
0.193548 0.903226 0
0.225806 0.870968 0
0.193548 0.870968 0
0.225806 0.935484 0
0.193548 0.935484 0
0.225806 0.903226 0
0.193548 0.903226 0
0.225806 0.967742 0
0.193548 0.967742 0
0.225806 0.935484 0
0.193548 0.935484 0
0.258064 0.516129 0
0.225806 0.516129 0
0.258064 0.483871 0
0.225806 0.483871 0
0.258064 0.548387 0
0.225806 0.548387 0
0.258064 0.516129 0
0.225806 0.516129 0
0.258064 0.580645 0
0.225806 0.580645 0
0.258064 0.548387 0
0.225806 0.548387 0
0.258064 0.612903 0
0.225806 0.612903 0
0.258064 0.580645 0
0.225806 0.580645 0
0.258064 0.645161 0
0.225806 0.645161 0
0.258064 0.612903 0
0.225806 0.612903 0
0.258064 0.677419 0
0.225806 0.677419 0
0.258064 0.645161 0
0.225806 0.645161 0
0.258064 0.709677 0
0.225806 0.709677 0
0.258064 0.677419 0
0.225806 0.677419 0
0.258064 0.741935 0
0.225806 0.741935 0
0.258064 0.709677 0
0.225806 0.709677 0
0.258064 0.774193 0
0.225806 0.774193 0
0.258064 0.741935 0
0.225806 0.741935 0
0.258064 0.806452 0
0.225806 0.806452 0
0.258064 0.774193 0
0.225806 0.774193 0
0.258064 0.83871 0
0.225806 0.83871 0
0.258064 0.806452 0
0.225806 0.806452 0
0.258064 0.870968 0
0.225806 0.870968 0
0.258064 0.83871 0
0.225806 0.83871 0
0.258064 0.903226 0
0.225806 0.903226 0
0.258064 0.870968 0
0.225806 0.870968 0
0.258064 0.935484 0
0.225806 0.935484 0
0.258064 0.903226 0
0.225806 0.903226 0
0.258064 0.967742 0
0.225806 0.967742 0
0.258064 0.935484 0
0.225806 0.935484 0
0.290323 0.516129 0
0.258064 0.516129 0
0.290323 0.483871 0
0.258064 0.483871 0
0.290323 0.548387 0
0.258064 0.548387 0
0.290323 0.516129 0
0.258064 0.516129 0
0.290323 0.580645 0
0.258064 0.580645 0
0.290323 0.548387 0
0.258064 0.548387 0
0.290323 0.612903 0
0.258064 0.612903 0
0.290323 0.580645 0
0.258064 0.580645 0
0.290323 0.645161 0
0.258064 0.645161 0
[...]
POINT_DATA 2700
VECTORS u double
0.00743265 0.0474196 0
0.00742145 0.05 0
0.00489327 0.0474298 0
0.0048806 0.05 0
0.00991779 0.0474105 0
0.00990799 0.05 0
0.00743265 0.0474196 0
0.00742145 0.05 0
0.0123557 0.0474025 0
0.0123473 0.05 0
0.00991779 0.0474105 0
0.00990799 0.05 0
0.0147534 0.0473957 0
0.0147465 0.05 0
0.0123557 0.0474025 0
0.0123473 0.05 0
0.0171183 0.0473901 0
0.0171131 0.05 0
0.0147534 0.0473957 0
0.0147465 0.05 0
0.0194583 0.047386 0
0.0194547 0.05 0
0.0171183 0.0473901 0
0.0171131 0.05 0
0.0217816 0.0473834 0
0.0217798 0.05 0
0.0194583 0.047386 0
0.0194547 0.05 0
0.0240969 0.0473825 0
0.0240971 0.05 0
0.0217816 0.0473834 0
0.0217798 0.05 0
0.0264135 0.0473833 0
0.0264156 0.05 0
0.0240969 0.0473825 0
0.0240971 0.05 0
0.0287409 0.0473858 0
0.028745 0.05 0
0.0264135 0.0473833 0
0.0264156 0.05 0
0.031089 0.0473902 0
0.0310953 0.05 0
0.0287409 0.0473858 0
0.028745 0.05 0
0.0334681 0.0473964 0
0.0334766 0.05 0
0.031089 0.0473902 0
0.0310953 0.05 0
0.0358887 0.0474046 0
0.0358995 0.05 0
0.0334681 0.0473964 0
0.0334766 0.05 0
0.0383617 0.0474147 0
0.0383747 0.05 0
0.0358887 0.0474046 0
0.0358995 0.05 0
0.0408978 0.0474268 0
0.0409131 0.05 0
0.0383617 0.0474147 0
0.0383747 0.05 0
0.00746621 0.0448423 0
0.00743265 0.0474196 0
0.00493118 0.0448627 0
0.00489327 0.0474298 0
0.00994722 0.0448241 0
0.00991779 0.0474105 0
0.00746621 0.0448423 0
0.00743265 0.0474196 0
0.0123809 0.0448081 0
0.0123557 0.0474025 0
0.00994722 0.0448241 0
0.00991779 0.0474105 0
0.0147741 0.0447945 0
0.0147534 0.0473957 0
0.0123809 0.0448081 0
0.0123557 0.0474025 0
0.0171342 0.0447835 0
0.0171183 0.0473901 0
0.0147741 0.0447945 0
0.0147534 0.0473957 0
0.019469 0.0447754 0
0.0194583 0.047386 0
0.0171342 0.0447835 0
0.0171183 0.0473901 0
0.0217868 0.0447704 0
0.0217816 0.0473834 0
0.019469 0.0447754 0
0.0194583 0.047386 0
0.0240964 0.0447688 0
0.0240969 0.0473825 0
0.0217868 0.0447704 0
0.0217816 0.0473834 0
0.026407 0.0447705 0
0.0264135 0.0473833 0
0.0240964 0.0447688 0
0.0240969 0.0473825 0
0.0287283 0.0447758 0
0.0287409 0.0473858 0
0.026407 0.0447705 0
0.0264135 0.0473833 0
0.03107 0.0447846 0
0.031089 0.0473902 0
0.0287283 0.0447758 0
0.0287409 0.0473858 0
0.0334426 0.0447971 0
0.0334681 0.0473964 0
0.03107 0.0447846 0
0.031089 0.0473902 0
0.0358565 0.0448135 0
0.0358887 0.0474046 0
0.0334426 0.0447971 0
0.0334681 0.0473964 0
0.0383227 0.0448337 0
0.0383617 0.0474147 0
0.0358565 0.0448135 0
0.0358887 0.0474046 0
0.0408521 0.0448579 0
0.0408978 0.0474268 0
0.0383227 0.0448337 0
0.0383617 0.0474147 0
0.00752207 0.0422711 0
0.00746621 0.0448423 0
0.00499412 0.0423017 0
0.00493118 0.0448627 0
0.00999627 0.0422439 0
0.00994722 0.0448241 0
0.00752207 0.0422711 0
0.00746621 0.0448423 0
0.0124229 0.0422199 0
0.0123809 0.0448081 0
0.00999627 0.0422439 0
0.00994722 0.0448241 0
0.0148087 0.0421996 0
0.0147741 0.0447945 0
0.0124229 0.0422199 0
0.0123809 0.0448081 0
0.0171607 0.0421834 0
0.0171342 0.0447835 0
0.0148087 0.0421996 0
0.0147741 0.0447945 0
0.0194868 0.0421716 0
0.019469 0.0447754 0
0.0171607 0.0421834 0
0.0171342 0.0447835 0
0.0217955 0.0421646 0
0.0217868 0.0447704 0
0.0194868 0.0421716 0
0.019469 0.0447754 0
0.0240955 0.0421626 0
0.0240964 0.0447688 0
0.0217955 0.0421646 0
0.0217868 0.0447704 0
0.0263962 0.0421657 0
0.026407 0.0447705 0
0.0240955 0.0421626 0
0.0240964 0.0447688 0
0.0287071 0.042174 0
0.0287283 0.0447758 0
0.0263962 0.0421657 0
0.026407 0.0447705 0
0.0310384 0.0421876 0
0.03107 0.0447846 0
0.0287071 0.042174 0
0.0287283 0.0447758 0
0.0334001 0.0422066 0
0.0334426 0.0447971 0
0.0310384 0.0421876 0
0.03107 0.0447846 0
0.0358029 0.0422312 0
0.0358565 0.0448135 0
0.0334001 0.0422066 0
0.0334426 0.0447971 0
0.0382577 0.0422617 0
0.0383227 0.0448337 0
0.0358029 0.0422312 0
0.0358565 0.0448135 0
0.0407758 0.042298 0
0.0408521 0.0448579 0
0.0382577 0.0422617 0
0.0383227 0.0448337 0
0.00760012 0.0397088 0
0.00752207 0.0422711 0
0.00508172 0.0397493 0
0.00499412 0.0423017 0
0.010065 0.0396725 0
0.00999627 0.0422439 0
0.00760012 0.0397088 0
0.00752207 0.0422711 0
0.0124819 0.0396408 0
0.0124229 0.0422199 0
0.010065 0.0396725 0
0.00999627 0.0422439 0
0.0148571 0.039614 0
0.0148087 0.0421996 0
0.0124819 0.0396408 0
0.0124229 0.0422199 0
0.0171976 0.0395928 0
0.0171607 0.0421834 0
0.0148571 0.039614 0
0.0148087 0.0421996 0
0.0195115 0.0395779 0
0.0194868 0.0421716 0
0.0171976 0.0395928 0
0.0171607 0.0421834 0
0.0218072 0.0395695 0
0.0217955 0.0421646 0
0.0195115 0.0395779 0
0.0194868 0.0421716 0
0.0240937 0.0395679 0
0.0240955 0.0421626 0
0.0218072 0.0395695 0
0.0217955 0.0421646 0
0.0263806 0.039573 0
0.0263962 0.0421657 0
0.0240937 0.0395679 0
0.0240955 0.0421626 0
0.0286773 0.0395849 0
0.0287071 0.042174 0
0.0263806 0.039573 0
0.0263962 0.0421657 0
0.0309939 0.0396036 0
0.0310384 0.0421876 0
0.0286773 0.0395849 0
0.0287071 0.042174 0
0.0333405 0.0396294 0
0.0334001 0.0422066 0
0.0309939 0.0396036 0
0.0310384 0.0421876 0
0.0357277 0.0396624 0
0.0358029 0.0422312 0
0.0333405 0.0396294 0
0.0334001 0.0422066 0
0.0381666 0.0397031 0
0.0382577 0.0422617 0
0.0357277 0.0396624 0
0.0358029 0.0422312 0
0.0406687 0.0397516 0
0.0407758 0.042298 0
0.0381666 0.0397031 0
0.0382577 0.0422617 0
0.00770024 0.0371578 0
0.00760012 0.0397088 0
0.00519351 0.0372082 0
0.00508172 0.0397493 0
0.0101535 0.0371126 0
0.010065 0.0396725 0
0.00770024 0.0371578 0
0.00760012 0.0397088 0
0.0125579 0.037073 0
0.0124819 0.0396408 0
0.0101535 0.0371126 0
0.010065 0.0396725 0
0.0149194 0.0370401 0
0.0148571 0.039614 0
0.0125579 0.037073 0
0.0124819 0.0396408 0
0.0172449 0.0370147 0
0.0171976 0.0395928 0
0.0149194 0.0370401 0
0.0148571 0.039614 0
0.0195426 0.0369975 0
0.0195115 0.0395779 0
0.0172449 0.0370147 0
0.0171976 0.0395928 0
0.0218215 0.0369888 0
0.0218072 0.0395695 0
0.0195426 0.0369975 0
0.0195115 0.0395779 0
0.0240907 0.0369885 0
0.0240937 0.0395679 0
0.0218215 0.0369888 0
0.0218072 0.0395695 0
0.0263598 0.0369966 0
0.0263806 0.039573 0
0.0240907 0.0369885 0
0.0240937 0.0395679 0
0.0286384 0.0370129 0
0.0286773 0.0395849 0
0.0263598 0.0369966 0
0.0263806 0.039573 0
0.0309364 0.0370374 0
0.0309939 0.0396036 0
0.0286384 0.0370129 0
0.0286773 0.0395849 0
0.0332638 0.0370703 0
0.0333405 0.0396294 0
0.0309364 0.0370374 0
0.0309939 0.0396036 0
0.0356312 0.037112 0
0.0357277 0.0396624 0
0.0332638 0.0370703 0
0.0333405 0.0396294 0
0.0380496 0.0371629 0
0.0381666 0.0397031 0
0.0356312 0.037112 0
0.0357277 0.0396624 0
0.0405307 0.0372237 0
0.0406687 0.0397516 0
0.0380496 0.0371629 0
0.0381666 0.0397031 0
0.00782244 0.0346198 0
0.00770024 0.0371578 0
0.00532893 0.03468 0
0.00519351 0.0372082 0
0.0102621 0.0345657 0
0.0101535 0.0371126 0
0.00782244 0.0346198 0
0.00770024 0.0371578 0
0.0126512 0.0345187 0
0.0125579 0.037073 0
0.0102621 0.0345657 0
0.0101535 0.0371126 0
0.0149954 0.0344802 0
0.0149194 0.0370401 0
0.0126512 0.0345187 0
0.0125579 0.037073 0
0.017302 0.0344515 0
0.0172449 0.0370147 0
0.0149954 0.0344802 0
0.0149194 0.0370401 0
0.0195796 0.0344334 0
0.0195426 0.0369975 0
0.017302 0.0344515 0
0.0172449 0.0370147 0
0.0218375 0.0344259 0
0.0218215 0.0369888 0
0.0195796 0.0344334 0
0.0195426 0.0369975 0
0.0240856 0.0344286 0
0.0240907 0.0369885 0
0.0218375 0.0344259 0
0.0218215 0.0369888 0
0.0263332 0.0344412 0
0.0263598 0.0369966 0
0.0240856 0.0344286 0
0.0240907 0.0369885 0
0.0285901 0.034463 0
0.0286384 0.0370129 0
0.0263332 0.0344412 0
0.0263598 0.0369966 0
0.0308658 0.0344941 0
0.0309364 0.0370374 0
0.0285901 0.034463 0
0.0286384 0.0370129 0
0.0331701 0.0345346 0
0.0332638 0.0370703 0
0.0308658 0.0344941 0
0.0309364 0.0370374 0
0.0355134 0.0345851 0
0.0356312 0.037112 0
0.0331701 0.0345346 0
0.0332638 0.0370703 0
0.0379067 0.0346463 0
0.0380496 0.0371629 0
0.0355134 0.0345851 0
0.0356312 0.037112 0
0.0403618 0.0347193 0
0.0405307 0.0372237 0
0.0379067 0.0346463 0
0.0380496 0.0371629 0
0.0079669 0.0320961 0
0.00782244 0.0346198 0
0.00548741 0.0321659 0
0.00532893 0.03468 0
0.0103911 0.0320331 0
0.0102621 0.0345657 0
0.0079669 0.0320961 0
0.00782244 0.0346198 0
0.012762 0.0319788 0
0.0126512 0.0345187 0
0.0103911 0.0320331 0
0.0102621 0.0345657 0
0.015085 0.0319358 0
0.0149954 0.0344802 0
0.012762 0.0319788 0
0.0126512 0.0345187 0
0.0173682 0.0319056 0
0.017302 0.0344515 0
0.015085 0.0319358 0
0.0149954 0.0344802 0
0.0196211 0.0318888 0
0.0195796 0.0344334 0
0.0173682 0.0319056 0
0.017302 0.0344515 0
0.0218541 0.0318848 0
0.0218375 0.0344259 0
0.0196211 0.0318888 0
0.0195796 0.0344334 0
0.0240771 0.0318927 0
0.0240856 0.0344286 0
0.0218541 0.0318848 0
0.0218375 0.0344259 0
0.0262998 0.0319116 0
0.0263332 0.0344412 0
0.0240771 0.0318927 0
0.0240856 0.0344286 0
0.0285315 0.0319405 0
0.0285901 0.034463 0
0.0262998 0.0319116 0
0.0263332 0.0344412 0
0.0307816 0.0319792 0
0.0308658 0.0344941 0
0.0285315 0.0319405 0
0.0285901 0.034463 0
0.0330593 0.0320279 0
0.0331701 0.0345346 0
0.0307816 0.0319792 0
0.0308658 0.0344941 0
0.0353746 0.0320874 0
0.0355134 0.0345851 0
0.0330593 0.0320279 0
0.0331701 0.0345346 0
0.0377382 0.0321589 0
0.0379067 0.0346463 0
0.0353746 0.0320874 0
0.0355134 0.0345851 0
0.0401621 0.0322439 0
0.0403618 0.0347193 0
0.0377382 0.0321589 0
0.0379067 0.0346463 0
0.0081342 0.0295863 0
0.0079669 0.0320961 0
0.00566845 0.0296658 0
0.00548741 0.0321659 0
0.0105414 0.0295143 0
0.0103911 0.0320331 0
0.0081342 0.0295863 0
0.0079669 0.0320961 0
0.0128904 0.0294536 0
0.012762 0.0319788 0
0.0105414 0.0295143 0
0.0103911 0.0320331 0
0.0151874 0.0294079 0
0.015085 0.0319358 0
0.0128904 0.0294536 0
0.012762 0.0319788 0
0.0174419 0.029379 0
0.0173682 0.0319056 0
0.0151874 0.0294079 0
0.015085 0.0319358 0
0.0196654 0.0293667 0
0.0196211 0.0318888 0
0.0174419 0.029379 0
0.0173682 0.0319056 0
0.0218691 0.0293696 0
0.0218541 0.0318848 0
0.0196654 0.0293667 0
0.0196211 0.0318888 0
0.0240635 0.0293858 0
0.0240771 0.0318927 0
0.0218691 0.0293696 0
0.0218541 0.0318848 0
0.0262582 0.0294134 0
0.0262998 0.0319116 0
0.0240635 0.0293858 0
0.0240771 0.0318927 0
0.028462 0.0294512 0
0.0285315 0.0319405 0
0.0262582 0.0294134 0
0.0262998 0.0319116 0
0.0306836 0.0294987 0
0.0307816 0.0319792 0
0.028462 0.0294512 0
0.0285315 0.0319405 0
0.0329316 0.0295563 0
0.0330593 0.0320279 0
0.0306836 0.0294987 0
0.0307816 0.0319792 0
0.0352152 0.029625 0
0.0353746 0.0320874 0
0.0329316 0.0295563 0
0.0330593 0.0320279 0
0.0375449 0.0297066 0
0.0377382 0.0321589 0
0.0352152 0.029625 0
0.0353746 0.0320874 0
0.0399322 0.0298033 0
0.0401621 0.0322439 0
0.0375449 0.0297066 0
0.0377382 0.0321589 0
0.00832572 0.0270884 0
0.0081342 0.0295863 0
0.0058719 0.0271779 0
0.00566845 0.0296658 0
0.0107142 0.0270074 0
0.0105414 0.0295143 0
0.00832572 0.0270884 0
0.0081342 0.0295863 0
0.0130365 0.0269418 0
0.0128904 0.0294536 0
0.0107142 0.0270074 0
0.0105414 0.0295143 0
0.0153009 0.0268967 0
0.0151874 0.0294079 0
0.0130365 0.0269418 0
0.0128904 0.0294536 0
0.0175205 0.0268737 0
0.0174419 0.029379 0
0.0153009 0.0268967 0
0.0151874 0.0294079 0
0.0197092 0.026871 0
0.0196654 0.0293667 0
0.0175205 0.0268737 0
0.0174419 0.029379 0
0.0218796 0.0268854 0
0.0218691 0.0293696 0
0.0197092 0.026871 0
0.0196654 0.0293667 0
0.0240424 0.0269136 0
0.0240635 0.0293858 0
0.0218796 0.0268854 0
0.0218691 0.0293696 0
0.0262067 0.0269529 0
0.0262582 0.0294134 0
0.0240424 0.0269136 0
0.0240635 0.0293858 0
0.0283805 0.0270016 0
0.028462 0.0294512 0
0.0262067 0.0269529 0
0.0262582 0.0294134 0
0.0305715 0.0270592 0
0.0306836 0.0294987 0
0.0283805 0.0270016 0
0.028462 0.0294512 0
0.0327872 0.0271262 0
0.0329316 0.0295563 0
0.0305715 0.0270592 0
0.0306836 0.0294987 0
0.0350361 0.0272042 0
0.0352152 0.029625 0
0.0327872 0.0271262 0
0.0329316 0.0295563 0
0.0373277 0.0272956 0
0.0375449 0.0297066 0
0.0350361 0.0272042 0
0.0352152 0.029625 0
0.0396731 0.0274036 0
0.0399322 0.0298033 0
0.0373277 0.0272956 0
0.0375449 0.0297066 0
0.00854427 0.0245973 0
0.00832572 0.0270884 0
0.00609834 0.0246977 0
0.0058719 0.0271779 0
0.0109114 0.0245075 0
0.0107142 0.0270074 0
0.00854427 0.0245973 0
0.00832572 0.0270884 0
0.0131992 0.0244403 0
0.0130365 0.0269418 0
0.0109114 0.0245075 0
0.0107142 0.0270074 0
0.0154221 0.0244022 0
0.0153009 0.0268967 0
0.0131992 0.0244403 0
0.0130365 0.0269418 0
0.0175993 0.0243926 0
0.0175205 0.0268737 0
0.0154221 0.0244022 0
0.0153009 0.0268967 0
0.0197479 0.0244066 0
0.0197092 0.026871 0
0.0175993 0.0243926 0
0.0175205 0.0268737 0
0.0218817 0.0244385 0
0.0218796 0.0268854 0
0.0197479 0.0244066 0
0.0197092 0.026871 0
0.0240109 0.0244832 0
0.0240424 0.0269136 0
0.0218817 0.0244385 0
0.0218796 0.0268854 0
0.0261434 0.0245373 0
0.0262067 0.0269529 0
0.0240109 0.0244832 0
0.0240424 0.0269136 0
0.0282861 0.024599 0
0.0283805 0.0270016 0
0.0261434 0.0245373 0
0.0262067 0.0269529 0
0.0304451 0.0246679 0
0.0305715 0.0270592 0
0.0282861 0.024599 0
0.0283805 0.0270016 0
0.0326268 0.0247448 0
0.0327872 0.0271262 0
0.0304451 0.0246679 0
0.0305715 0.0270592 0
0.0348384 0.0248319 0
0.0350361 0.0272042 0
0.0326268 0.0247448 0
0.0327872 0.0271262 0
0.0370881 0.0249325 0
0.0373277 0.0272956 0
0.0348384 0.0248319 0
0.0350361 0.0272042 0
0.0393864 0.0250508 0
0.0396731 0.0274036 0
0.0370881 0.0249325 0
0.0373277 0.0272956 0
0.0087953 0.0221032 0
0.00854427 0.0245973 0
0.00634998 0.0222158 0
0.00609834 0.0246977 0
0.0111347 0.0220058 0
0.0109114 0.0245075 0
0.0087953 0.0221032 0
0.00854427 0.0245973 0
0.0133748 0.0219449 0
0.0131992 0.0244403 0
0.0111347 0.0220058 0
0.0109114 0.0245075 0
0.0155441 0.0219254 0
0.0154221 0.0244022 0
0.0133748 0.0219449 0
0.0131992 0.0244403 0
0.0176707 0.0219411 0
0.0175993 0.0243926 0
0.0155441 0.0219254 0
0.0154221 0.0244022 0
0.0197753 0.0219813 0
0.0197479 0.0244066 0
0.0176707 0.0219411 0
0.0175993 0.0243926 0
0.0218708 0.0220374 0
0.0218817 0.0244385 0
0.0197753 0.0219813 0
0.0197479 0.0244066 0
0.0239659 0.0221032 0
0.0240109 0.0244832 0
0.0218708 0.0220374 0
0.0218817 0.0244385 0
0.0260666 0.022175 0
0.0261434 0.0245373 0
0.0239659 0.0221032 0
0.0240109 0.0244832 0
0.028178 0.0222513 0
0.0282861 0.024599 0
0.0260666 0.022175 0
0.0261434 0.0245373 0
0.0303047 0.0223321 0
0.0304451 0.0246679 0
0.028178 0.0222513 0
0.0282861 0.024599 0
0.0324514 0.0224189 0
0.0326268 0.0247448 0
0.0303047 0.0223321 0
0.0304451 0.0246679 0
0.0346237 0.0225147 0
0.0348384 0.0248319 0
0.0324514 0.0224189 0
0.0326268 0.0247448 0
0.0368284 0.0226236 0
0.0370881 0.0249325 0
0.0346237 0.0225147 0
0.0348384 0.0248319 0
0.0390746 0.0227513 0
0.0393864 0.0250508 0
0.0368284 0.0226236 0
0.0370881 0.0249325 0
0.00908912 0.0195851 0
0.0087953 0.0221032 0
0.00663405 0.0197154 0
0.00634998 0.0222158 0
0.0113834 0.0194885 0
0.0111347 0.0220058 0
0.00908912 0.0195851 0
0.0087953 0.0221032 0
0.013553 0.0194517 0
0.0133748 0.0219449 0
0.0113834 0.0194885 0
0.0111347 0.0220058 0
0.0156536 0.0194731 0
0.0155441 0.0219254 0
0.013553 0.0194517 0
0.0133748 0.0219449 0
0.0177245 0.0195301 0
0.0176707 0.0219411 0
0.0156536 0.0194731 0
0.0155441 0.0219254 0
0.019784 0.0196069 0
0.0197753 0.0219813 0
0.0177245 0.0195301 0
0.0176707 0.0219411 0
0.021842 0.0196934 0
0.0218708 0.0220374 0
0.019784 0.0196069 0
0.0197753 0.0219813 0
0.0239044 0.0197837 0
0.0239659 0.0221032 0
0.021842 0.0196934 0
0.0218708 0.0220374 0
0.0259747 0.0198751 0
0.0260666 0.022175 0
0.0239044 0.0197837 0
0.0239659 0.0221032 0
0.028056 0.0199667 0
0.028178 0.0222513 0
0.0259747 0.0198751 0
0.0260666 0.022175 0
0.0301509 0.0200595 0
0.0303047 0.0223321 0
0.028056 0.0199667 0
0.028178 0.0222513 0
0.0322624 0.0201558 0
0.0324514 0.0224189 0
0.0301509 0.0200595 0
0.0303047 0.0223321 0
0.0343943 0.0202593 0
0.0346237 0.0225147 0
0.0322624 0.0201558 0
0.0324514 0.0224189 0
0.0365516 0.0203754 0
0.0368284 0.0226236 0
0.0343943 0.0202593 0
0.0346237 0.0225147 0
0.0387412 0.0205107 0
0.0390746 0.0227513 0
0.0365516 0.0203754 0
0.0368284 0.0226236 0
0.00944186 0.0170114 0
0.00908912 0.0195851 0
0.00696787 0.0171489 0
0.00663405 0.0197154 0
0.0116445 0.0169331 0
0.0113834 0.0194885 0
0.00944186 0.0170114 0
0.00908912 0.0195851 0
0.0137061 0.0169724 0
0.013553 0.0194517 0
0.0116445 0.0169331 0
0.0113834 0.0194885 0
0.0157325 0.0170647 0
0.0156536 0.0194731 0
0.0137061 0.0169724 0
0.013553 0.0194517 0
0.0177489 0.0171791 0
0.0177245 0.0195301 0
0.0157325 0.0170647 0
0.0156536 0.0194731 0
0.0197671 0.0173002 0
0.019784 0.0196069 0
0.0177489 0.0171791 0
0.0177245 0.0195301 0
0.0217916 0.0174205 0
0.021842 0.0196934 0
0.0197671 0.0173002 0
0.019784 0.0196069 0
0.0238248 0.0175365 0
0.0239044 0.0197837 0
0.0217916 0.0174205 0
0.021842 0.0196934 0
0.0258676 0.0176473 0
0.0259747 0.0198751 0
0.0238248 0.0175365 0
0.0239044 0.0197837 0
0.0279209 0.0177536 0
0.028056 0.0199667 0
0.0258676 0.0176473 0
0.0259747 0.0198751 0
0.0299854 0.0178573 0
0.0301509 0.0200595 0
0.0279209 0.0177536 0
0.028056 0.0199667 0
0.0320622 0.0179618 0
0.0322624 0.0201558 0
0.0299854 0.0178573 0
0.0301509 0.0200595 0
0.0341532 0.0180718 0
0.0343943 0.0202593 0
0.0320622 0.0179618 0
0.0322624 0.0201558 0
0.0362611 0.0181933 0
0.0365516 0.0203754 0
0.0341532 0.0180718 0
0.0343943 0.0202593 0
0.0383907 0.0183343 0
0.0387412 0.0205107 0
0.0362611 0.0181933 0
0.0365516 0.0203754 0
0.00986504 0.0142663 0
0.00944186 0.0170114 0
0.00744575 0.0144887 0
0.00696787 0.0171489 0
0.0118395 0.014377 0
0.0116445 0.0169331 0
0.00986504 0.0142663 0
0.00944186 0.0170114 0
0.0138018 0.0145541 0
0.0137061 0.0169724 0
0.0118395 0.014377 0
0.0116445 0.0169331 0
0.0157632 0.0147391 0
0.0157325 0.0170647 0
0.0138018 0.0145541 0
0.0137061 0.0169724 0
0.017736 0.0149167 0
0.0177489 0.0171791 0
0.0157632 0.0147391 0
0.0157325 0.0170647 0
0.0197212 0.0150821 0
0.0197671 0.0173002 0
0.017736 0.0149167 0
0.0177489 0.0171791 0
0.0217187 0.0152341 0
0.0217916 0.0174205 0
0.0197212 0.0150821 0
0.0197671 0.0173002 0
0.0237275 0.0153732 0
0.0238248 0.0175365 0
0.0217187 0.0152341 0
0.0217916 0.0174205 0
0.0257465 0.0155008 0
0.0258676 0.0176473 0
0.0237275 0.0153732 0
0.0238248 0.0175365 0
0.0277744 0.0156193 0
0.0279209 0.0177536 0
0.0257465 0.0155008 0
0.0258676 0.0176473 0
0.0298104 0.0157318 0
0.0299854 0.0178573 0
0.0277744 0.0156193 0
0.0279209 0.0177536 0
0.0318536 0.0158425 0
0.0320622 0.0179618 0
0.0298104 0.0157318 0
0.0299854 0.0178573 0
0.0339039 0.0159569 0
0.0341532 0.0180718 0
0.0318536 0.0158425 0
0.0320622 0.0179618 0
0.0359617 0.0160819 0
0.0362611 0.0181933 0
0.0339039 0.0159569 0
0.0341532 0.0180718 0
0.0380288 0.0162263 0
0.0383907 0.0183343 0
0.0359617 0.0160819 0
0.0362611 0.0181933 0
0.0100449 0.0115711 0
0.00986504 0.0142663 0
0.00832468 0.0110503 0
0.00744575 0.0144887 0
0.0119253 0.0119748 0
0.0118395 0.014377 0
0.0100449 0.0115711 0
0.00986504 0.0142663 0
0.0138199 0.0122863 0
0.0138018 0.0145541 0
0.0119253 0.0119748 0
0.0118395 0.014377 0
0.0157428 0.0125486 0
0.0157632 0.0147391 0
0.0138199 0.0122863 0
0.0138018 0.0145541 0
0.0176867 0.0127752 0
0.017736 0.0149167 0
0.0157428 0.0125486 0
0.0157632 0.0147391 0
0.019649 0.0129736 0
0.0197212 0.0150821 0
0.0176867 0.0127752 0
0.017736 0.0149167 0
0.0216262 0.0131486 0
0.0217187 0.0152341 0
0.019649 0.0129736 0
0.0197212 0.0150821 0
0.0236156 0.0133038 0
0.0237275 0.0153732 0
0.0216262 0.0131486 0
0.0217187 0.0152341 0
0.0256143 0.0134429 0
0.0257465 0.0155008 0
0.0236156 0.0133038 0
0.0237275 0.0153732 0
0.0276197 0.0135694 0
0.0277744 0.0156193 0
0.0256143 0.0134429 0
0.0257465 0.0155008 0
0.0296291 0.0136874 0
0.0298104 0.0157318 0
0.0276197 0.0135694 0
0.0277744 0.0156193 0
0.0316402 0.0138017 0
0.0318536 0.0158425 0
0.0296291 0.0136874 0
0.0298104 0.0157318 0
0.0336506 0.0139181 0
0.0339039 0.0159569 0
0.0316402 0.0138017 0
0.0318536 0.0158425 0
0.0356583 0.0140441 0
0.0359617 0.0160819 0
0.0336506 0.0139181 0
0.0339039 0.0159569 0
0.0376618 0.0141892 0
0.0380288 0.0162263 0
0.0356583 0.0140441 0
0.0359617 0.0160819 0
0.0101303 0.00953481 0
0.0100449 0.0115711 0
0.00858849 0.00913795 0
0.00832468 0.0110503 0
0.0119243 0.00991396 0
0.0119253 0.0119748 0
0.0101303 0.00953481 0
0.0100449 0.0115711 0
0.0137888 0.0102494 0
0.0138199 0.0122863 0
0.0119243 0.00991396 0
0.0119253 0.0119748 0
0.0156875 0.010534 0
0.0157428 0.0125486 0
0.0137888 0.0102494 0