# vtk DataFile Version 3.0
#This file was generated by the deal.II library on 2021/1/5 at 13:55:19
ASCII
DATASET UNSTRUCTURED_GRID

POINTS 2700 double
0.0322581 0.516129 0
0 0.516129 0
0.0322581 0.483871 0
0 0.483871 0
0.0322581 0.548387 0
0 0.548387 0
0.0322581 0.516129 0
0 0.516129 0
0.0322581 0.580645 0
0 0.580645 0
0.0322581 0.548387 0
0 0.548387 0
0.0322581 0.612903 0
0 0.612903 0
0.0322581 0.580645 0
0 0.580645 0
0.0322581 0.645161 0
0 0.645161 0
0.0322581 0.612903 0
0 0.612903 0
0.0322581 0.677419 0
0 0.677419 0
0.0322581 0.645161 0
0 0.645161 0
0.0322581 0.709677 0
0 0.709677 0
0.0322581 0.677419 0
0 0.677419 0
0.0322581 0.741935 0
0 0.741935 0
0.0322581 0.709677 0
0 0.709677 0
0.0322581 0.774193 0
0 0.774193 0
0.0322581 0.741935 0
0 0.741935 0
0.0322581 0.806452 0
0 0.806452 0
0.0322581 0.774193 0
0 0.774193 0
0.0322581 0.83871 0
0 0.83871 0
0.0322581 0.806452 0
0 0.806452 0
0.0322581 0.870968 0
0 0.870968 0
0.0322581 0.83871 0
0 0.83871 0
0.0322581 0.903226 0
0 0.903226 0
0.0322581 0.870968 0
0 0.870968 0
0.0322581 0.935484 0
0 0.935484 0
0.0322581 0.903226 0
0 0.903226 0
0.0322581 0.967742 0
0 0.967742 0
0.0322581 0.935484 0
0 0.935484 0
0.0645161 0.516129 0
0.0322581 0.516129 0
0.0645161 0.483871 0
0.0322581 0.483871 0
0.0645161 0.548387 0
0.0322581 0.548387 0
0.0645161 0.516129 0
0.0322581 0.516129 0
0.0645161 0.580645 0
0.0322581 0.580645 0
0.0645161 0.548387 0
0.0322581 0.548387 0
0.0645161 0.612903 0
0.0322581 0.612903 0
0.0645161 0.580645 0
0.0322581 0.580645 0
0.0645161 0.645161 0
0.0322581 0.645161 0
0.0645161 0.612903 0
0.0322581 0.612903 0
0.0645161 0.677419 0
0.0322581 0.677419 0
0.0645161 0.645161 0
0.0322581 0.645161 0
0.0645161 0.709677 0
0.0322581 0.709677 0
0.0645161 0.677419 0
0.0322581 0.677419 0
0.0645161 0.741935 0
0.0322581 0.741935 0
0.0645161 0.709677 0
0.0322581 0.709677 0
0.0645161 0.774193 0
0.0322581 0.774193 0
0.0645161 0.741935 0
0.0322581 0.741935 0
0.0645161 0.806452 0
0.0322581 0.806452 0
0.0645161 0.774193 0
0.0322581 0.774193 0
0.0645161 0.83871 0
0.0322581 0.83871 0
0.0645161 0.806452 0
0.0322581 0.806452 0
0.0645161 0.870968 0
0.0322581 0.870968 0
0.0645161 0.83871 0
0.0322581 0.83871 0
0.0645161 0.903226 0
0.0322581 0.903226 0
0.0645161 0.870968 0
0.0322581 0.870968 0
0.0645161 0.935484 0
0.0322581 0.935484 0
0.0645161 0.903226 0
0.0322581 0.903226 0
0.0645161 0.967742 0
0.0322581 0.967742 0
0.0645161 0.935484 0
0.0322581 0.935484 0
0.0967742 0.516129 0
0.0645161 0.516129 0
0.0967742 0.483871 0
0.0645161 0.483871 0
0.0967742 0.548387 0
0.0645161 0.548387 0
0.0967742 0.516129 0
0.0645161 0.516129 0
0.0967742 0.580645 0
0.0645161 0.580645 0
0.0967742 0.548387 0
0.0645161 0.548387 0
0.0967742 0.612903 0
0.0645161 0.612903 0
0.0967742 0.580645 0
0.0645161 0.580645 0
0.0967742 0.645161 0
0.0645161 0.645161 0
0.0967742 0.612903 0
0.0645161 0.612903 0
0.0967742 0.677419 0
0.0645161 0.677419 0
0.0967742 0.645161 0
0.0645161 0.645161 0
0.0967742 0.709677 0
0.0645161 0.709677 0
0.0967742 0.677419 0
0.0645161 0.677419 0
0.0967742 0.741935 0
0.0645161 0.741935 0
0.0967742 0.709677 0
0.0645161 0.709677 0
0.0967742 0.774193 0
0.0645161 0.774193 0
0.0967742 0.741935 0
0.0645161 0.741935 0
0.0967742 0.806452 0
0.0645161 0.806452 0
0.0967742 0.774193 0
0.0645161 0.774193 0
0.0967742 0.83871 0
0.0645161 0.83871 0
0.0967742 0.806452 0
0.0645161 0.806452 0
0.0967742 0.870968 0
0.0645161 0.870968 0
0.0967742 0.83871 0
0.0645161 0.83871 0
0.0967742 0.903226 0
0.0645161 0.903226 0
0.0967742 0.870968 0
0.0645161 0.870968 0
0.0967742 0.935484 0
0.0645161 0.935484 0
0.0967742 0.903226 0
0.0645161 0.903226 0
0.0967742 0.967742 0
0.0645161 0.967742 0
0.0967742 0.935484 0
0.0645161 0.935484 0
0.129032 0.516129 0
0.0967742 0.516129 0
0.129032 0.483871 0
0.0967742 0.483871 0
0.129032 0.548387 0
0.0967742 0.548387 0
0.129032 0.516129 0
0.0967742 0.516129 0
0.129032 0.580645 0
0.0967742 0.580645 0
0.129032 0.548387 0
0.0967742 0.548387 0
0.129032 0.612903 0
0.0967742 0.612903 0
0.129032 0.580645 0
0.0967742 0.580645 0
0.129032 0.645161 0
0.0967742 0.645161 0
0.129032 0.612903 0
0.0967742 0.612903 0
0.129032 0.677419 0
0.0967742 0.677419 0
0.129032 0.645161 0
0.0967742 0.645161 0
0.129032 0.709677 0
0.0967742 0.709677 0
0.129032 0.677419 0
0.0967742 0.677419 0
0.129032 0.741935 0
0.0967742 0.741935 0
0.129032 0.709677 0
0.0967742 0.709677 0
0.129032 0.774193 0
0.0967742 0.774193 0
0.129032 0.741935 0
0.0967742 0.741935 0
0.129032 0.806452 0
0.0967742 0.806452 0
0.129032 0.774193 0
0.0967742 0.774193 0
0.129032 0.83871 0
0.0967742 0.83871 0
0.129032 0.806452 0
0.0967742 0.806452 0
0.129032 0.870968 0
0.0967742 0.870968 0
0.129032 0.83871 0
0.0967742 0.83871 0
0.129032 0.903226 0
0.0967742 0.903226 0
0.129032 0.870968 0
0.0967742 0.870968 0
0.129032 0.935484 0
0.0967742 0.935484 0
0.129032 0.903226 0
0.0967742 0.903226 0
0.129032 0.967742 0
0.0967742 0.967742 0
0.129032 0.935484 0
0.0967742 0.935484 0
0.16129 0.516129 0
0.129032 0.516129 0
0.16129 0.483871 0
0.129032 0.483871 0
0.16129 0.548387 0
0.129032 0.548387 0
0.16129 0.516129 0
0.129032 0.516129 0
0.16129 0.580645 0
0.129032 0.580645 0
0.16129 0.548387 0
0.129032 0.548387 0
0.16129 0.612903 0
0.129032 0.612903 0
0.16129 0.580645 0
0.129032 0.580645 0
0.16129 0.645161 0
0.129032 0.645161 0
0.16129 0.612903 0
0.129032 0.612903 0
0.16129 0.677419 0
0.129032 0.677419 0
0.16129 0.645161 0
0.129032 0.645161 0
0.16129 0.709677 0
0.129032 0.709677 0
0.16129 0.677419 0
0.129032 0.677419 0
0.16129 0.741935 0
0.129032 0.741935 0
0.16129 0.709677 0
0.129032 0.709677 0
0.16129 0.774193 0
0.129032 0.774193 0
0.16129 0.741935 0
0.129032 0.741935 0
0.16129 0.806452 0
0.129032 0.806452 0
0.16129 0.774193 0
0.129032 0.774193 0
0.16129 0.83871 0
0.129032 0.83871 0
0.16129 0.806452 0
0.129032 0.806452 0
0.16129 0.870968 0
0.129032 0.870968 0
0.16129 0.83871 0
0.129032 0.83871 0
0.16129 0.903226 0
0.129032 0.903226 0
0.16129 0.870968 0
0.129032 0.870968 0
0.16129 0.935484 0
0.129032 0.935484 0
0.16129 0.903226 0
0.129032 0.903226 0
0.16129 0.967742 0
0.129032 0.967742 0
0.16129 0.935484 0
0.129032 0.935484 0
0.193548 0.516129 0
0.16129 0.516129 0
0.193548 0.483871 0
0.16129 0.483871 0
0.193548 0.548387 0
0.16129 0.548387 0
0.193548 0.516129 0
0.16129 0.516129 0
0.193548 0.580645 0
0.16129 0.580645 0
0.193548 0.548387 0
0.16129 0.548387 0
0.193548 0.612903 0
0.16129 0.612903 0
0.193548 0.580645 0
0.16129 0.580645 0
0.193548 0.645161 0
0.16129 0.645161 0
0.193548 0.612903 0
0.16129 0.612903 0
0.193548 0.677419 0
0.16129 0.677419 0
0.193548 0.645161 0
0.16129 0.645161 0
0.193548 0.709677 0
0.16129 0.709677 0
0.193548 0.677419 0
0.16129 0.677419 0
0.193548 0.741935 0
0.16129 0.741935 0
0.193548 0.709677 0
0.16129 0.709677 0
0.193548 0.774193 0
0.16129 0.774193 0
0.193548 0.741935 0
0.16129 0.741935 0
0.193548 0.806452 0
0.16129 0.806452 0
0.193548 0.774193 0
0.16129 0.774193 0
0.193548 0.83871 0
0.16129 0.83871 0
0.193548 0.806452 0
0.16129 0.806452 0
0.193548 0.870968 0
0.16129 0.870968 0
0.193548 0.83871 0
0.16129 0.83871 0
0.193548 0.903226 0
0.16129 0.903226 0
0.193548 0.870968 0
0.16129 0.870968 0
0.193548 0.935484 0
0.16129 0.935484 0
0.193548 0.903226 0
0.16129 0.903226 0
0.193548 0.967742 0
0.16129 0.967742 0
0.193548 0.935484 0
0.16129 0.935484 0
0.225806 0.516129 0
0.193548 0.516129 0
0.225806 0.483871 0
0.193548 0.483871 0
0.225806 0.548387 0
0.193548 0.548387 0
0.225806 0.516129 0
0.193548 0.516129 0
0.225806 0.580645 0
0.193548 0.580645 0
0.225806 0.548387 0
0.193548 0.548387 0
0.225806 0.612903 0
0.193548 0.612903 0
0.225806 0.580645 0
0.193548 0.580645 0
0.225806 0.645161 0
0.193548 0.645161 0
0.225806 0.612903 0
0.193548 0.612903 0
0.225806 0.677419 0
0.193548 0.677419 0
0.225806 0.645161 0
0.193548 0.645161 0
0.225806 0.709677 0
0.193548 0.709677 0
0.225806 0.677419 0
0.193548 0.677419 0
0.225806 0.741935 0
0.193548 0.741935 0
0.225806 0.709677 0
0.193548 0.709677 0
0.225806 0.774193 0
0.193548 0.774193 0
0.225806 0.741935 0
0.193548 0.741935 0
0.225806 0.806452 0
0.193548 0.806452 0
0.225806 0.774193 0
0.193548 0.774193 0
0.225806 0.83871 0
0.193548 0.83871 0
0.225806 0.806452 0
0.193548 0.806452 0
0.225806 0.870968 0
0.193548 0.870968 0
0.225806 0.83871 0
0.193548 0.83871 0
0.225806 0.903226 0
0.193548 0.903226 0
0.225806 0.870968 0
0.193548 0.870968 0
0.225806 0.935484 0
0.193548 0.935484 0
0.225806 0.903226 0
0.193548 0.903226 0
0.225806 0.967742 0
0.193548 0.967742 0
0.225806 0.935484 0
0.193548 0.935484 0
0.258064 0.516129 0
0.225806 0.516129 0
0.258064 0.483871 0
0.225806 0.483871 0
0.258064 0.548387 0
0.225806 0.548387 0
0.258064 0.516129 0
0.225806 0.516129 0
0.258064 0.580645 0
0.225806 0.580645 0
0.258064 0.548387 0
0.225806 0.548387 0
0.258064 0.612903 0
0.225806 0.612903 0
0.258064 0.580645 0
0.225806 0.580645 0
0.258064 0.645161 0
0.225806 0.645161 0
0.258064 0.612903 0
0.225806 0.612903 0
0.258064 0.677419 0
0.225806 0.677419 0
0.258064 0.645161 0
0.225806 0.645161 0
0.258064 0.709677 0
0.225806 0.709677 0
0.258064 0.677419 0
0.225806 0.677419 0
0.258064 0.741935 0
0.225806 0.741935 0
0.258064 0.709677 0
0.225806 0.709677 0
0.258064 0.774193 0
0.225806 0.774193 0
0.258064 0.741935 0
0.225806 0.741935 0
0.258064 0.806452 0
0.225806 0.806452 0
0.258064 0.774193 0
0.225806 0.774193 0
0.258064 0.83871 0
0.225806 0.83871 0
0.258064 0.806452 0
0.225806 0.806452 0
0.258064 0.870968 0
0.225806 0.870968 0
0.258064 0.83871 0
0.225806 0.83871 0
0.258064 0.903226 0
0.225806 0.903226 0
0.258064 0.870968 0
0.225806 0.870968 0
0.258064 0.935484 0
0.225806 0.935484 0
0.258064 0.903226 0
0.225806 0.903226 0
0.258064 0.967742 0
0.225806 0.967742 0
0.258064 0.935484 0
0.225806 0.935484 0
0.290323 0.516129 0
0.258064 0.516129 0
0.290323 0.483871 0
0.258064 0.483871 0
0.290323 0.548387 0
0.258064 0.548387 0
0.290323 0.516129 0
0.258064 0.516129 0
0.290323 0.580645 0
0.258064 0.580645 0
0.290323 0.548387 0
0.258064 0.548387 0
0.290323 0.612903 0
0.258064 0.612903 0
0.290323 0.580645 0
0.258064 0.580645 0
0.290323 0.645161 0
0.258064 0.645161 0
[...]
POINT_DATA 2700
VECTORS u double
0.00445959 0.0284518 0
0.00445287 0.03 0
0.00293596 0.0284579 0
0.00292836 0.03 0
0.00595068 0.0284463 0
0.00594479 0.03 0
0.00445959 0.0284518 0
0.00445287 0.03 0
0.00741341 0.0284415 0
0.00740838 0.03 0
0.00595068 0.0284463 0
0.00594479 0.03 0
0.00885205 0.0284374 0
0.00884791 0.03 0
0.00741341 0.0284415 0
0.00740838 0.03 0
0.010271 0.0284341 0
0.0102678 0.03 0
0.00885205 0.0284374 0
0.00884791 0.03 0
0.011675 0.0284316 0
0.0116728 0.03 0
0.010271 0.0284341 0
0.0102678 0.03 0
0.013069 0.0284301 0
0.0130679 0.03 0
0.011675 0.0284316 0
0.0116728 0.03 0
0.0144582 0.0284295 0
0.0144582 0.03 0
0.013069 0.0284301 0
0.0130679 0.03 0
0.0158481 0.02843 0
0.0158494 0.03 0
0.0144582 0.0284295 0
0.0144582 0.03 0
0.0172445 0.0284315 0
0.017247 0.03 0
0.0158481 0.02843 0
0.0158494 0.03 0
0.0186534 0.0284341 0
0.0186572 0.03 0
0.0172445 0.0284315 0
0.017247 0.03 0
0.0200808 0.0284378 0
0.0200859 0.03 0
0.0186534 0.0284341 0
0.0186572 0.03 0
0.0215332 0.0284427 0
0.0215397 0.03 0
0.0200808 0.0284378 0
0.0200859 0.03 0
0.023017 0.0284488 0
0.0230248 0.03 0
0.0215332 0.0284427 0
0.0215397 0.03 0
0.0245387 0.0284561 0
0.0245478 0.03 0
0.023017 0.0284488 0
0.0230248 0.03 0
0.00447973 0.0269054 0
0.00445959 0.0284518 0
0.00295871 0.0269176 0
0.00293596 0.0284579 0
0.00596833 0.0268945 0
0.00595068 0.0284463 0
0.00447973 0.0269054 0
0.00445959 0.0284518 0
0.00742853 0.0268849 0
0.00741341 0.0284415 0
0.00596833 0.0268945 0
0.00595068 0.0284463 0
0.00886447 0.0268767 0
0.00885205 0.0284374 0
0.00742853 0.0268849 0
0.00741341 0.0284415 0
0.0102805 0.0268701 0
0.010271 0.0284341 0
0.00886447 0.0268767 0
0.00885205 0.0284374 0
0.0116814 0.0268652 0
0.011675 0.0284316 0
0.0102805 0.0268701 0
0.010271 0.0284341 0
0.0130721 0.0268623 0
0.013069 0.0284301 0
0.0116814 0.0268652 0
0.011675 0.0284316 0
0.0144579 0.0268613 0
0.0144582 0.0284295 0
0.0130721 0.0268623 0
0.013069 0.0284301 0
0.0158442 0.0268623 0
0.0158481 0.02843 0
0.0144579 0.0268613 0
0.0144582 0.0284295 0
0.017237 0.0268655 0
0.0172445 0.0284315 0
0.0158442 0.0268623 0
0.0158481 0.02843 0
0.018642 0.0268708 0
0.0186534 0.0284341 0
0.017237 0.0268655 0
0.0172445 0.0284315 0
0.0200655 0.0268783 0
0.0200808 0.0284378 0
0.018642 0.0268708 0
0.0186534 0.0284341 0
0.0215139 0.0268881 0
0.0215332 0.0284427 0
0.0200655 0.0268783 0
0.0200808 0.0284378 0
0.0229936 0.0269002 0
0.023017 0.0284488 0
0.0215139 0.0268881 0
0.0215332 0.0284427 0
0.0245113 0.0269148 0
0.0245387 0.0284561 0
0.0229936 0.0269002 0
0.023017 0.0284488 0
0.00451324 0.0253627 0
0.00447973 0.0269054 0
0.00299647 0.025381 0
0.00295871 0.0269176 0
0.00599776 0.0253463 0
0.00596833 0.0268945 0
0.00451324 0.0253627 0
0.00447973 0.0269054 0
0.00745376 0.025332 0
0.00742853 0.0268849 0
0.00599776 0.0253463 0
0.00596833 0.0268945 0
0.0088852 0.0253198 0
0.00886447 0.0268767 0
0.00745376 0.025332 0
0.00742853 0.0268849 0
0.0102964 0.02531 0
0.0102805 0.0268701 0
0.0088852 0.0253198 0
0.00886447 0.0268767 0
0.0116921 0.025303 0
0.0116814 0.0268652 0
0.0102964 0.02531 0
0.0102805 0.0268701 0
0.0130773 0.0252988 0
0.0130721 0.0268623 0
0.0116921 0.025303 0
0.0116814 0.0268652 0
0.0144573 0.0252976 0
0.0144579 0.0268613 0
0.0130773 0.0252988 0
0.0130721 0.0268623 0
0.0158377 0.0252994 0
0.0158442 0.0268623 0
0.0144573 0.0252976 0
0.0144579 0.0268613 0
0.0172243 0.0253044 0
0.017237 0.0268655 0
0.0158377 0.0252994 0
0.0158442 0.0268623 0
0.018623 0.0253125 0
0.018642 0.0268708 0
0.0172243 0.0253044 0
0.017237 0.0268655 0
0.02004 0.0253239 0
0.0200655 0.0268783 0
0.018623 0.0253125 0
0.018642 0.0268708 0
0.0214817 0.0253387 0
0.0215139 0.0268881 0
0.02004 0.0253239 0
0.0200655 0.0268783 0
0.0229546 0.025357 0
0.0229936 0.0269002 0
0.0214817 0.0253387 0
0.0215139 0.0268881 0
0.0244655 0.0253788 0
0.0245113 0.0269148 0
0.0229546 0.025357 0
0.0229936 0.0269002 0
0.00456007 0.0238253 0
0.00451324 0.0253627 0
0.00304903 0.0238496 0
0.00299647 0.025381 0
0.006039 0.0238035 0
0.00599776 0.0253463 0
0.00456007 0.0238253 0
0.00451324 0.0253627 0
0.00748914 0.0237845 0
0.00745376 0.025332 0
0.006039 0.0238035 0
0.00599776 0.0253463 0
0.00891425 0.0237684 0
0.0088852 0.0253198 0
0.00748914 0.0237845 0
0.00745376 0.025332 0
0.0103186 0.0237557 0
0.0102964 0.02531 0
0.00891425 0.0237684 0
0.0088852 0.0253198 0
0.0117069 0.0237467 0
0.0116921 0.025303 0
0.0103186 0.0237557 0
0.0102964 0.02531 0
0.0130843 0.0237417 0
0.0130773 0.0252988 0
0.0117069 0.0237467 0
0.0116921 0.025303 0
0.0144562 0.0237407 0
0.0144573 0.0252976 0
0.0130843 0.0237417 0
0.0130773 0.0252988 0
0.0158283 0.0237438 0
0.0158377 0.0252994 0
0.0144562 0.0237407 0
0.0144573 0.0252976 0
0.0172064 0.0237509 0
0.0172243 0.0253044 0
0.0158283 0.0237438 0
0.0158377 0.0252994 0
0.0185963 0.0237622 0
0.018623 0.0253125 0
0.0172064 0.0237509 0
0.0172243 0.0253044 0
0.0200043 0.0237776 0
0.02004 0.0253239 0
0.0185963 0.0237622 0
0.018623 0.0253125 0
0.0214366 0.0237974 0
0.0214817 0.0253387 0
0.0200043 0.0237776 0
0.02004 0.0253239 0
0.0229 0.0238219 0
0.0229546 0.025357 0
0.0214366 0.0237974 0
0.0214817 0.0253387 0
0.0244012 0.023851 0
0.0244655 0.0253788 0
0.0229 0.0238219 0
0.0229546 0.025357 0
0.00462015 0.0222947 0
0.00456007 0.0238253 0
0.00311611 0.0223249 0
0.00304903 0.0238496 0
0.0060921 0.0222675 0
0.006039 0.0238035 0
0.00462015 0.0222947 0
0.00456007 0.0238253 0
0.00753476 0.0222438 0
0.00748914 0.0237845 0
0.0060921 0.0222675 0
0.006039 0.0238035 0
0.00895161 0.0222241 0
0.00891425 0.0237684 0
0.00753476 0.0222438 0
0.00748914 0.0237845 0
0.0103469 0.0222088 0
0.0103186 0.0237557 0
0.00895161 0.0222241 0
0.00891425 0.0237684 0
0.0117256 0.0221985 0
0.0117069 0.0237467 0
0.0103469 0.0222088 0
0.0103186 0.0237557 0
0.0130929 0.0221933 0
0.0130843 0.0237417 0
0.0117256 0.0221985 0
0.0117069 0.0237467 0
0.0144544 0.0221931 0
0.0144562 0.0237407 0
0.0130929 0.0221933 0
0.0130843 0.0237417 0
0.0158159 0.022198 0
0.0158283 0.0237438 0
0.0144544 0.0221931 0
0.0144562 0.0237407 0
0.0171831 0.0222078 0
0.0172064 0.0237509 0
0.0158159 0.022198 0
0.0158283 0.0237438 0
0.0185619 0.0222225 0
0.0185963 0.0237622 0
0.0171831 0.0222078 0
0.0172064 0.0237509 0
0.0199583 0.0222422 0
0.0200043 0.0237776 0
0.0185619 0.0222225 0
0.0185963 0.0237622 0
0.0213787 0.0222672 0
0.0214366 0.0237974 0
0.0199583 0.0222422 0
0.0200043 0.0237776 0
0.0228297 0.0222978 0
0.0229 0.0238219 0
0.0213787 0.0222672 0
0.0214366 0.0237974 0
0.0243184 0.0223342 0
0.0244012 0.023851 0
0.0228297 0.0222978 0
0.0229 0.0238219 0
0.00469347 0.0207719 0
0.00462015 0.0222947 0
0.00319736 0.020808 0
0.00311611 0.0223249 0
0.00615723 0.0207394 0
0.0060921 0.0222675 0
0.00469347 0.0207719 0
0.00462015 0.0222947 0
0.00759073 0.0207112 0
0.00753476 0.0222438 0
0.00615723 0.0207394 0
0.0060921 0.0222675 0
0.00899725 0.0206881 0
0.00895161 0.0222241 0
0.00759073 0.0207112 0
0.00753476 0.0222438 0
0.0103812 0.0206709 0
0.0103469 0.0222088 0
0.00899725 0.0206881 0
0.00895161 0.0222241 0
0.0117477 0.02066 0
0.0117256 0.0221985 0
0.0103812 0.0206709 0
0.0103469 0.0222088 0
0.0131025 0.0206555 0
0.0130929 0.0221933 0
0.0117477 0.02066 0
0.0117256 0.0221985 0
0.0144513 0.0206572 0
0.0144544 0.0221931 0
0.0131025 0.0206555 0
0.0130929 0.0221933 0
0.0157999 0.0206647 0
0.0158159 0.022198 0
0.0144513 0.0206572 0
0.0144544 0.0221931 0
0.017154 0.0206778 0
0.0171831 0.0222078 0
0.0157999 0.0206647 0
0.0158159 0.022198 0
0.0185195 0.0206965 0
0.0185619 0.0222225 0
0.017154 0.0206778 0
0.0171831 0.0222078 0
0.0199021 0.0207208 0
0.0199583 0.0222422 0
0.0185195 0.0206965 0
0.0185619 0.0222225 0
0.021308 0.0207511 0
0.0213787 0.0222672 0
0.0199021 0.0207208 0
0.0199583 0.0222422 0
0.022744 0.0207878 0
0.0228297 0.0222978 0
0.021308 0.0207511 0
0.0213787 0.0222672 0
0.0242171 0.0208316 0
0.0243184 0.0223342 0
0.022744 0.0207878 0
0.0228297 0.0222978 0
0.00478014 0.0192576 0
0.00469347 0.0207719 0
0.00329244 0.0192995 0
0.00319736 0.020808 0
0.00623465 0.0192198 0
0.00615723 0.0207394 0
0.00478014 0.0192576 0
0.00469347 0.0207719 0
0.00765719 0.0191873 0
0.00759073 0.0207112 0
0.00623465 0.0192198 0
0.00615723 0.0207394 0
0.00905099 0.0191615 0
0.00899725 0.0206881 0
0.00765719 0.0191873 0
0.00759073 0.0207112 0
0.0104209 0.0191434 0
0.0103812 0.0206709 0
0.00905099 0.0191615 0
0.00899725 0.0206881 0
0.0117727 0.0191333 0
0.0117477 0.02066 0
0.0104209 0.0191434 0
0.0103812 0.0206709 0
0.0131125 0.0191309 0
0.0131025 0.0206555 0
0.0117727 0.0191333 0
0.0117477 0.02066 0
0.0144463 0.0191356 0
0.0144513 0.0206572 0
0.0131125 0.0191309 0
0.0131025 0.0206555 0
0.0157799 0.0191469 0
0.0157999 0.0206647 0
0.0144463 0.0191356 0
0.0144513 0.0206572 0
0.0171189 0.0191643 0
0.017154 0.0206778 0
0.0157799 0.0191469 0
0.0157999 0.0206647 0
0.0184689 0.0191875 0
0.0185195 0.0206965 0
0.0171189 0.0191643 0
0.017154 0.0206778 0
0.0198356 0.0192167 0
0.0199021 0.0207208 0
0.0184689 0.0191875 0
0.0185195 0.0206965 0
0.0212248 0.0192524 0
0.021308 0.0207511 0
0.0198356 0.0192167 0
0.0199021 0.0207208 0
0.0226429 0.0192954 0
0.022744 0.0207878 0
0.0212248 0.0192524 0
0.021308 0.0207511 0
0.0240973 0.0193463 0
0.0242171 0.0208316 0
0.0226429 0.0192954 0
0.022744 0.0207878 0
0.00488052 0.0177518 0
0.00478014 0.0192576 0
0.00340107 0.0177995 0
0.00329244 0.0192995 0
0.00632482 0.0177086 0
0.00623465 0.0192198 0
0.00488052 0.0177518 0
0.00478014 0.0192576 0
0.00773427 0.0176722 0
0.00765719 0.0191873 0
0.00632482 0.0177086 0
0.00623465 0.0192198 0
0.00911242 0.0176448 0
0.00905099 0.0191615 0
0.00773427 0.0176722 0
0.00765719 0.0191873 0
0.0104651 0.0176274 0
0.0104209 0.0191434 0
0.00911242 0.0176448 0
0.00905099 0.0191615 0
0.0117992 0.01762 0
0.0117727 0.0191333 0
0.0104651 0.0176274 0
0.0104209 0.0191434 0
0.0131214 0.0176218 0
0.0131125 0.0191309 0
0.0117992 0.01762 0
0.0117727 0.0191333 0
0.0144381 0.0176315 0
0.0144463 0.0191356 0
0.0131214 0.0176218 0
0.0131125 0.0191309 0
0.0157549 0.017648 0
0.0157799 0.0191469 0
0.0144381 0.0176315 0
0.0144463 0.0191356 0
0.0170772 0.0176707 0
0.0171189 0.0191643 0
0.0157549 0.017648 0
0.0157799 0.0191469 0
0.0184101 0.0176992 0
0.0184689 0.0191875 0
0.0170772 0.0176707 0
0.0171189 0.0191643 0
0.0197589 0.0177338 0
0.0198356 0.0192167 0
0.0184101 0.0176992 0
0.0184689 0.0191875 0
0.0211291 0.017775 0
0.0212248 0.0192524 0
0.0197589 0.0177338 0
0.0198356 0.0192167 0
0.0225269 0.017824 0
0.0226429 0.0192954 0
0.0211291 0.017775 0
0.0212248 0.0192524 0
0.0239593 0.017882 0
0.0240973 0.0193463 0
0.0225269 0.017824 0
0.0226429 0.0192954 0
0.00499543 0.016253 0
0.00488052 0.0177518 0
0.00352314 0.0163067 0
0.00340107 0.0177995 0
0.00642852 0.0162044 0
0.00632482 0.0177086 0
0.00499543 0.016253 0
0.00488052 0.0177518 0
0.00782191 0.0161651 0
0.00773427 0.0176722 0
0.00642852 0.0162044 0
0.00632482 0.0177086 0
0.00918055 0.016138 0
0.00911242 0.0176448 0
0.00782191 0.0161651 0
0.00773427 0.0176722 0
0.0105123 0.0161242 0
0.0104651 0.0176274 0
0.00918055 0.016138 0
0.00911242 0.0176448 0
0.0118255 0.0161226 0
0.0117992 0.01762 0
0.0105123 0.0161242 0
0.0104651 0.0176274 0
0.0131278 0.0161312 0
0.0131214 0.0176218 0
0.0118255 0.0161226 0
0.0117992 0.01762 0
0.0144254 0.0161482 0
0.0144381 0.0176315 0
0.0131278 0.0161312 0
0.0131214 0.0176218 0
0.015724 0.0161717 0
0.0157549 0.017648 0
0.0144254 0.0161482 0
0.0144381 0.0176315 0
0.0170283 0.016201 0
0.0170772 0.0176707 0
0.015724 0.0161717 0
0.0157549 0.017648 0
0.0183429 0.0162355 0
0.0184101 0.0176992 0
0.0170283 0.016201 0
0.0170772 0.0176707 0
0.0196723 0.0162757 0
0.0197589 0.0177338 0
0.0183429 0.0162355 0
0.0184101 0.0176992 0
0.0210217 0.0163225 0
0.0211291 0.017775 0
0.0196723 0.0162757 0
0.0197589 0.0177338 0
0.0223966 0.0163774 0
0.0225269 0.017824 0
0.0210217 0.0163225 0
0.0211291 0.017775 0
0.0238039 0.0164421 0
0.0239593 0.017882 0
0.0223966 0.0163774 0
0.0225269 0.017824 0
0.00512656 0.0147584 0
0.00499543 0.016253 0
0.00365901 0.0148186 0
0.00352314 0.0163067 0
0.00654681 0.0147045 0
0.00642852 0.0162044 0
0.00512656 0.0147584 0
0.00499543 0.016253 0
0.00791954 0.0146642 0
0.00782191 0.0161651 0
0.00654681 0.0147045 0
0.00642852 0.0162044 0
0.00925328 0.0146413 0
0.00918055 0.016138 0
0.00791954 0.0146642 0
0.00782191 0.0161651 0
0.0105596 0.0146355 0
0.0105123 0.0161242 0
0.00925328 0.0146413 0
0.00918055 0.016138 0
0.0118488 0.014644 0
0.0118255 0.0161226 0
0.0105596 0.0146355 0
0.0105123 0.0161242 0
0.013129 0.0146631 0
0.0131278 0.0161312 0
0.0118488 0.014644 0
0.0118255 0.0161226 0
0.0144066 0.0146899 0
0.0144254 0.0161482 0
0.013129 0.0146631 0
0.0131278 0.0161312 0
0.0156861 0.0147224 0
0.015724 0.0161717 0
0.0144066 0.0146899 0
0.0144254 0.0161482 0
0.0169716 0.0147594 0
0.0170283 0.016201 0
0.0156861 0.0147224 0
0.015724 0.0161717 0
0.018267 0.0148007 0
0.0183429 0.0162355 0
0.0169716 0.0147594 0
0.0170283 0.016201 0
0.0195761 0.0148469 0
0.0196723 0.0162757 0
0.018267 0.0148007 0
0.0183429 0.0162355 0
0.020903 0.0148991 0
0.0210217 0.0163225 0
0.0195761 0.0148469 0
0.0196723 0.0162757 0
0.0222529 0.0149595 0
0.0223966 0.0163774 0
0.020903 0.0148991 0
0.0210217 0.0163225 0
0.0236318 0.0150305 0
0.0238039 0.0164421 0
0.0222529 0.0149595 0
0.0223966 0.0163774 0
0.00527718 0.0132619 0
0.00512656 0.0147584 0
0.00380999 0.0133295 0
0.00365901 0.0148186 0
0.00668084 0.0132035 0
0.00654681 0.0147045 0
0.00527718 0.0132619 0
0.00512656 0.0147584 0
0.0080249 0.013167 0
0.00791954 0.0146642 0
0.00668084 0.0132035 0
0.00654681 0.0147045 0
0.00932644 0.0131553 0
0.00925328 0.0146413 0
0.0080249 0.013167 0
0.00791954 0.0146642 0
0.0106024 0.0131647 0
0.0105596 0.0146355 0
0.00932644 0.0131553 0
0.00925328 0.0146413 0
0.0118652 0.0131888 0
0.0118488 0.014644 0
0.0106024 0.0131647 0
0.0105596 0.0146355 0
0.0131225 0.0132224 0
0.013129 0.0146631 0
0.0118652 0.0131888 0
0.0118488 0.014644 0
0.0143795 0.0132619 0
0.0144066 0.0146899 0
0.0131225 0.0132224 0
0.013129 0.0146631 0
0.0156399 0.013305 0
0.0156861 0.0147224 0
0.0143795 0.0132619 0
0.0144066 0.0146899 0
0.0169068 0.0133508 0
0.0169716 0.0147594 0
0.0156399 0.013305 0
0.0156861 0.0147224 0
0.0181828 0.0133992 0
0.018267 0.0148007 0
0.0169068 0.0133508 0
0.0169716 0.0147594 0
0.0194708 0.0134514 0
0.0195761 0.0148469 0
0.0181828 0.0133992 0
0.018267 0.0148007 0
0.0207742 0.0135088 0
0.020903 0.0148991 0
0.0194708 0.0134514 0
0.0195761 0.0148469 0
0.0220971 0.0135742 0
0.0222529 0.0149595 0
0.0207742 0.0135088 0
0.020903 0.0148991 0
0.0234447 0.0136508 0
0.0236318 0.0150305 0
0.0220971 0.0135742 0
0.0222529 0.0149595 0
0.00545347 0.0117511 0
0.00527718 0.0132619 0
0.00398043 0.0118293 0
0.00380999 0.0133295 0
0.00683005 0.0116931 0
0.00668084 0.0132035 0
0.00545347 0.0117511 0
0.00527718 0.0132619 0
0.00813178 0.011671 0
0.0080249 0.013167 0
0.00683005 0.0116931 0
0.00668084 0.0132035 0
0.00939215 0.0116839 0
0.00932644 0.0131553 0
0.00813178 0.011671 0
0.0080249 0.013167 0
0.0106347 0.0117181 0
0.0106024 0.0131647 0
0.00939215 0.0116839 0
0.00932644 0.0131553 0
0.0118704 0.0117641 0
0.0118652 0.0131888 0
0.0106347 0.0117181 0
0.0106024 0.0131647 0
0.0131052 0.011816 0
0.0131225 0.0132224 0
0.0118704 0.0117641 0
0.0118652 0.0131888 0
0.0143426 0.0118702 0
0.0143795 0.0132619 0
0.0131052 0.011816 0
0.0131225 0.0132224 0
0.0155848 0.0119251 0
0.0156399 0.013305 0
0.0143426 0.0118702 0
0.0143795 0.0132619 0
0.0168336 0.01198 0
0.0169068 0.0133508 0
0.0155848 0.0119251 0
0.0156399 0.013305 0
0.0180906 0.0120357 0
0.0181828 0.0133992 0
0.0168336 0.01198 0
0.0169068 0.0133508 0
0.0193575 0.0120935 0
0.0194708 0.0134514 0
0.0180906 0.0120357 0
0.0181828 0.0133992 0
0.0206366 0.0121556 0
0.0207742 0.0135088 0
0.0193575 0.0120935 0
0.0194708 0.0134514 0
0.0219309 0.0122252 0
0.0220971 0.0135742 0
0.0206366 0.0121556 0
0.0207742 0.0135088 0
0.0232447 0.0123064 0
0.0234447 0.0136508 0
0.0219309 0.0122252 0
0.0220971 0.0135742 0
0.00566512 0.0102068 0
0.00545347 0.0117511 0
0.00418072 0.0102893 0
0.00398043 0.0118293 0
0.00698667 0.0101598 0
0.00683005 0.0116931 0
0.00566512 0.0102068 0
0.00545347 0.0117511 0
0.00822368 0.0101834 0
0.00813178 0.011671 0
0.00698667 0.0101598 0
0.00683005 0.0116931 0
0.00943952 0.0102388 0
0.00939215 0.0116839 0
0.00822368 0.0101834 0
0.00813178 0.011671 0
0.0106493 0.0103074 0
0.0106347 0.0117181 0
0.00943952 0.0102388 0
0.00939215 0.0116839 0
0.0118602 0.0103801 0
0.0118704 0.0117641 0
0.0106493 0.0103074 0
0.0106347 0.0117181 0
0.013075 0.0104523 0
0.0131052 0.011816 0
0.0118602 0.0103801 0
0.0118704 0.0117641 0
0.0142949 0.0105219 0
0.0143426 0.0118702 0
0.013075 0.0104523 0
0.0131052 0.011816 0
0.0155206 0.0105884 0
0.0155848 0.0119251 0
0.0142949 0.0105219 0
0.0143426 0.0118702 0
0.0167525 0.0106522 0
0.0168336 0.01198 0
0.0155206 0.0105884 0
0.0155848 0.0119251 0
0.0179912 0.0107144 0
0.0180906 0.0120357 0
0.0167525 0.0106522 0
0.0168336 0.01198 0
0.0192373 0.0107771 0
0.0193575 0.0120935 0
0.0179912 0.0107144 0
0.0180906 0.0120357 0
0.0204919 0.0108431 0
0.0206366 0.0121556 0
0.0192373 0.0107771 0
0.0193575 0.0120935 0
0.0217567 0.010916 0
0.0219309 0.0122252 0
0.0204919 0.0108431 0
0.0206366 0.0121556 0
0.0230344 0.0110006 0
0.0232447 0.0123064 0
0.0217567 0.010916 0
0.0219309 0.0122252 0
0.00591903 0.00855981 0
0.00566512 0.0102068 0
0.00446745 0.00869325 0
0.00418072 0.0102893 0
0.00710369 0.00862621 0
0.00698667 0.0101598 0
0.00591903 0.00855981 0
0.00566512 0.0102068 0
0.00828108 0.00873247 0
0.00822368 0.0101834 0
0.00710369 0.00862621 0
0.00698667 0.0101598 0
0.00945793 0.00884349 0
0.00943952 0.0102388 0
0.00828108 0.00873247 0
0.00822368 0.0101834 0
0.0106416 0.00895005 0
0.0106493 0.0103074 0
0.00945793 0.00884349 0
0.00943952 0.0102388 0
0.0118327 0.00904928 0
0.0118602 0.0103801 0
0.0106416 0.00895005 0
0.0106493 0.0103074 0
0.0130312 0.00914049 0
0.013075 0.0104523 0
0.0118327 0.00904928 0
0.0118602 0.0103801 0
0.0142365 0.00922392 0
0.0142949 0.0105219 0
0.0130312 0.00914049 0
0.013075 0.0104523 0
0.0154479 0.00930048 0
0.0155206 0.0105884 0
0.0142365 0.00922392 0
0.0142949 0.0105219 0
0.0166647 0.00937155 0
0.0167525 0.0106522 0
0.0154479 0.00930048 0
0.0155206 0.0105884 0
0.0178862 0.00943906 0
0.0179912 0.0107144 0
0.0166647 0.00937155 0
0.0167525 0.0106522 0
0.0191122 0.00950552 0
0.0192373 0.0107771 0
0.0178862 0.00943906 0
0.0179912 0.0107144 0
0.0203423 0.00957416 0
0.0204919 0.0108431 0
0.0191122 0.00950552 0
0.0192373 0.0107771 0
0.021577 0.00964913 0
0.0217567 0.010916 0
0.0203423 0.00957416 0
0.0204919 0.0108431 0
0.0228173 0.00973577 0
0.0230344 0.0110006 0
0.021577 0.00964913 0
0.0217567 0.010916 0
0.00602692 0.00694267 0
0.00591903 0.00855981 0
0.00499481 0.00663017 0
0.00446745 0.00869325 0
0.00715516 0.00718489 0
0.00710369 0.00862621 0
0.00602692 0.00694267 0
0.00591903 0.00855981 0
0.00829194 0.00737177 0
0.00828108 0.00873247 0
0.00715516 0.00718489 0
0.00710369 0.00862621 0
0.00944567 0.00752914 0
0.00945793 0.00884349 0
0.00829194 0.00737177 0
0.00828108 0.00873247 0
0.010612 0.00766511 0
0.0106416 0.00895005 0
0.00944567 0.00752914 0
0.00945793 0.00884349 0
0.0117894 0.00778416 0
0.0118327 0.00904928 0
0.010612 0.00766511 0
0.0106416 0.00895005 0
0.0129757 0.00788914 0
0.0130312 0.00914049 0
0.0117894 0.00778416 0
0.0118327 0.00904928 0
0.0141694 0.00798231 0
0.0142365 0.00922392 0
0.0129757 0.00788914 0
0.0130312 0.00914049 0
0.0153686 0.00806575 0
0.0154479 0.00930048 0
0.0141694 0.00798231 0
0.0142365 0.00922392 0
0.0165718 0.00814165 0
0.0166647 0.00937155 0
0.0153686 0.00806575 0
0.0154479 0.00930048 0
0.0177775 0.00821244 0
0.0178862 0.00943906 0
0.0165718 0.00814165 0
0.0166647 0.00937155 0
0.0189841 0.008281 0
0.0191122 0.00950552 0
0.0177775 0.00821244 0
0.0178862 0.00943906 0
0.0201904 0.00835086 0
0.0203423 0.00957416 0
0.0189841 0.008281 0
0.0191122 0.00950552 0
0.021395 0.00842648 0
0.021577 0.00964913 0
0.0201904 0.00835086 0
0.0203423 0.00957416 0
0.0225971 0.00851354 0
0.0228173 0.00973577 0
0.021395 0.00842648 0
0.021577 0.00964913 0
0.00607821 0.00572088 0
0.00602692 0.00694267 0
0.00515309 0.00548277 0
0.00499481 0.00663017 0
0.00715461 0.00594837 0
0.00715516 0.00718489 0
0.00607821 0.00572088 0