# vtk DataFile Version 3.0
#This file was generated by the deal.II library on 2021/1/5 at 13:55:19
ASCII
DATASET UNSTRUCTURED_GRID

POINTS 2700 double
0.0322581 0.516129 0
0 0.516129 0
0.0322581 0.483871 0
0 0.483871 0
0.0322581 0.548387 0
0 0.548387 0
0.0322581 0.516129 0
0 0.516129 0
0.0322581 0.580645 0
0 0.580645 0
0.0322581 0.548387 0
0 0.548387 0
0.0322581 0.612903 0
0 0.612903 0
0.0322581 0.580645 0
0 0.580645 0
0.0322581 0.645161 0
0 0.645161 0
0.0322581 0.612903 0
0 0.612903 0
0.0322581 0.677419 0
0 0.677419 0
0.0322581 0.645161 0
0 0.645161 0
0.0322581 0.709677 0
0 0.709677 0
0.0322581 0.677419 0
0 0.677419 0
0.0322581 0.741935 0
0 0.741935 0
0.0322581 0.709677 0
0 0.709677 0
0.0322581 0.774193 0
0 0.774193 0
0.0322581 0.741935 0
0 0.741935 0
0.0322581 0.806452 0
0 0.806452 0
0.0322581 0.774193 0
0 0.774193 0
0.0322581 0.83871 0
0 0.83871 0
0.0322581 0.806452 0
0 0.806452 0
0.0322581 0.870968 0
0 0.870968 0
0.0322581 0.83871 0
0 0.83871 0
0.0322581 0.903226 0
0 0.903226 0
0.0322581 0.870968 0
0 0.870968 0
0.0322581 0.935484 0
0 0.935484 0
0.0322581 0.903226 0
0 0.903226 0
0.0322581 0.967742 0
0 0.967742 0
0.0322581 0.935484 0
0 0.935484 0
0.0645161 0.516129 0
0.0322581 0.516129 0
0.0645161 0.483871 0
0.0322581 0.483871 0
0.0645161 0.548387 0
0.0322581 0.548387 0
0.0645161 0.516129 0
0.0322581 0.516129 0
0.0645161 0.580645 0
0.0322581 0.580645 0
0.0645161 0.548387 0
0.0322581 0.548387 0
0.0645161 0.612903 0
0.0322581 0.612903 0
0.0645161 0.580645 0
0.0322581 0.580645 0
0.0645161 0.645161 0
0.0322581 0.645161 0
0.0645161 0.612903 0
0.0322581 0.612903 0
0.0645161 0.677419 0
0.0322581 0.677419 0
0.0645161 0.645161 0
0.0322581 0.645161 0
0.0645161 0.709677 0
0.0322581 0.709677 0
0.0645161 0.677419 0
0.0322581 0.677419 0
0.0645161 0.741935 0
0.0322581 0.741935 0
0.0645161 0.709677 0
0.0322581 0.709677 0
0.0645161 0.774193 0
0.0322581 0.774193 0
0.0645161 0.741935 0
0.0322581 0.741935 0
0.0645161 0.806452 0
0.0322581 0.806452 0
0.0645161 0.774193 0
0.0322581 0.774193 0
0.0645161 0.83871 0
0.0322581 0.83871 0
0.0645161 0.806452 0
0.0322581 0.806452 0
0.0645161 0.870968 0
0.0322581 0.870968 0
0.0645161 0.83871 0
0.0322581 0.83871 0
0.0645161 0.903226 0
0.0322581 0.903226 0
0.0645161 0.870968 0
0.0322581 0.870968 0
0.0645161 0.935484 0
0.0322581 0.935484 0
0.0645161 0.903226 0
0.0322581 0.903226 0
0.0645161 0.967742 0
0.0322581 0.967742 0
0.0645161 0.935484 0
0.0322581 0.935484 0
0.0967742 0.516129 0
0.0645161 0.516129 0
0.0967742 0.483871 0
0.0645161 0.483871 0
0.0967742 0.548387 0
0.0645161 0.548387 0
0.0967742 0.516129 0
0.0645161 0.516129 0
0.0967742 0.580645 0
0.0645161 0.580645 0
0.0967742 0.548387 0
0.0645161 0.548387 0
0.0967742 0.612903 0
0.0645161 0.612903 0
0.0967742 0.580645 0
0.0645161 0.580645 0
0.0967742 0.645161 0
0.0645161 0.645161 0
0.0967742 0.612903 0
0.0645161 0.612903 0
0.0967742 0.677419 0
0.0645161 0.677419 0
0.0967742 0.645161 0
0.0645161 0.645161 0
0.0967742 0.709677 0
0.0645161 0.709677 0
0.0967742 0.677419 0
0.0645161 0.677419 0
0.0967742 0.741935 0
0.0645161 0.741935 0
0.0967742 0.709677 0
0.0645161 0.709677 0
0.0967742 0.774193 0
0.0645161 0.774193 0
0.0967742 0.741935 0
0.0645161 0.741935 0
0.0967742 0.806452 0
0.0645161 0.806452 0
0.0967742 0.774193 0
0.0645161 0.774193 0
0.0967742 0.83871 0
0.0645161 0.83871 0
0.0967742 0.806452 0
0.0645161 0.806452 0
0.0967742 0.870968 0
0.0645161 0.870968 0
0.0967742 0.83871 0
0.0645161 0.83871 0
0.0967742 0.903226 0
0.0645161 0.903226 0
0.0967742 0.870968 0
0.0645161 0.870968 0
0.0967742 0.935484 0
0.0645161 0.935484 0
0.0967742 0.903226 0
0.0645161 0.903226 0
0.0967742 0.967742 0
0.0645161 0.967742 0
0.0967742 0.935484 0
0.0645161 0.935484 0
0.129032 0.516129 0
0.0967742 0.516129 0
0.129032 0.483871 0
0.0967742 0.483871 0
0.129032 0.548387 0
0.0967742 0.548387 0
0.129032 0.516129 0
0.0967742 0.516129 0
0.129032 0.580645 0
0.0967742 0.580645 0
0.129032 0.548387 0
0.0967742 0.548387 0
0.129032 0.612903 0
0.0967742 0.612903 0
0.129032 0.580645 0
0.0967742 0.580645 0
0.129032 0.645161 0
0.0967742 0.645161 0
0.129032 0.612903 0
0.0967742 0.612903 0
0.129032 0.677419 0
0.0967742 0.677419 0
0.129032 0.645161 0
0.0967742 0.645161 0
0.129032 0.709677 0
0.0967742 0.709677 0
0.129032 0.677419 0
0.0967742 0.677419 0
0.129032 0.741935 0
0.0967742 0.741935 0
0.129032 0.709677 0
0.0967742 0.709677 0
0.129032 0.774193 0
0.0967742 0.774193 0
0.129032 0.741935 0
0.0967742 0.741935 0
0.129032 0.806452 0
0.0967742 0.806452 0
0.129032 0.774193 0
0.0967742 0.774193 0
0.129032 0.83871 0
0.0967742 0.83871 0
0.129032 0.806452 0
0.0967742 0.806452 0
0.129032 0.870968 0
0.0967742 0.870968 0
0.129032 0.83871 0
0.0967742 0.83871 0
0.129032 0.903226 0
0.0967742 0.903226 0
0.129032 0.870968 0
0.0967742 0.870968 0
0.129032 0.935484 0
0.0967742 0.935484 0
0.129032 0.903226 0
0.0967742 0.903226 0
0.129032 0.967742 0
0.0967742 0.967742 0
0.129032 0.935484 0
0.0967742 0.935484 0
0.16129 0.516129 0
0.129032 0.516129 0
0.16129 0.483871 0
0.129032 0.483871 0
0.16129 0.548387 0
0.129032 0.548387 0
0.16129 0.516129 0
0.129032 0.516129 0
0.16129 0.580645 0
0.129032 0.580645 0
0.16129 0.548387 0
0.129032 0.548387 0
0.16129 0.612903 0
0.129032 0.612903 0
0.16129 0.580645 0
0.129032 0.580645 0
0.16129 0.645161 0
0.129032 0.645161 0
0.16129 0.612903 0
0.129032 0.612903 0
0.16129 0.677419 0
0.129032 0.677419 0
0.16129 0.645161 0
0.129032 0.645161 0
0.16129 0.709677 0
0.129032 0.709677 0
0.16129 0.677419 0
0.129032 0.677419 0
0.16129 0.741935 0
0.129032 0.741935 0
0.16129 0.709677 0
0.129032 0.709677 0
0.16129 0.774193 0
0.129032 0.774193 0
0.16129 0.741935 0
0.129032 0.741935 0
0.16129 0.806452 0
0.129032 0.806452 0
0.16129 0.774193 0
0.129032 0.774193 0
0.16129 0.83871 0
0.129032 0.83871 0
0.16129 0.806452 0
0.129032 0.806452 0
0.16129 0.870968 0
0.129032 0.870968 0
0.16129 0.83871 0
0.129032 0.83871 0
0.16129 0.903226 0
0.129032 0.903226 0
0.16129 0.870968 0
0.129032 0.870968 0
0.16129 0.935484 0
0.129032 0.935484 0
0.16129 0.903226 0
0.129032 0.903226 0
0.16129 0.967742 0
0.129032 0.967742 0
0.16129 0.935484 0
0.129032 0.935484 0
0.193548 0.516129 0
0.16129 0.516129 0
0.193548 0.483871 0
0.16129 0.483871 0
0.193548 0.548387 0
0.16129 0.548387 0
0.193548 0.516129 0
0.16129 0.516129 0
0.193548 0.580645 0
0.16129 0.580645 0
0.193548 0.548387 0
0.16129 0.548387 0
0.193548 0.612903 0
0.16129 0.612903 0
0.193548 0.580645 0
0.16129 0.580645 0
0.193548 0.645161 0
0.16129 0.645161 0
0.193548 0.612903 0
0.16129 0.612903 0
0.193548 0.677419 0
0.16129 0.677419 0
0.193548 0.645161 0
0.16129 0.645161 0
0.193548 0.709677 0
0.16129 0.709677 0
0.193548 0.677419 0
0.16129 0.677419 0
0.193548 0.741935 0
0.16129 0.741935 0
0.193548 0.709677 0
0.16129 0.709677 0
0.193548 0.774193 0
0.16129 0.774193 0
0.193548 0.741935 0
0.16129 0.741935 0
0.193548 0.806452 0
0.16129 0.806452 0
0.193548 0.774193 0
0.16129 0.774193 0
0.193548 0.83871 0
0.16129 0.83871 0
0.193548 0.806452 0
0.16129 0.806452 0
0.193548 0.870968 0
0.16129 0.870968 0
0.193548 0.83871 0
0.16129 0.83871 0
0.193548 0.903226 0
0.16129 0.903226 0
0.193548 0.870968 0
0.16129 0.870968 0
0.193548 0.935484 0
0.16129 0.935484 0
0.193548 0.903226 0
0.16129 0.903226 0
0.193548 0.967742 0
0.16129 0.967742 0
0.193548 0.935484 0
0.16129 0.935484 0
0.225806 0.516129 0
0.193548 0.516129 0
0.225806 0.483871 0
0.193548 0.483871 0
0.225806 0.548387 0
0.193548 0.548387 0
0.225806 0.516129 0
0.193548 0.516129 0
0.225806 0.580645 0
0.193548 0.580645 0
0.225806 0.548387 0
0.193548 0.548387 0
0.225806 0.612903 0
0.193548 0.612903 0
0.225806 0.580645 0
0.193548 0.580645 0
0.225806 0.645161 0
0.193548 0.645161 0
0.225806 0.612903 0
0.193548 0.612903 0
0.225806 0.677419 0
0.193548 0.677419 0
0.225806 0.645161 0
0.193548 0.645161 0
0.225806 0.709677 0
0.193548 0.709677 0
0.225806 0.677419 0
0.193548 0.677419 0
0.225806 0.741935 0
0.193548 0.741935 0
0.225806 0.709677 0
0.193548 0.709677 0
0.225806 0.774193 0
0.193548 0.774193 0
0.225806 0.741935 0
0.193548 0.741935 0
0.225806 0.806452 0
0.193548 0.806452 0
0.225806 0.774193 0
0.193548 0.774193 0
0.225806 0.83871 0
0.193548 0.83871 0
0.225806 0.806452 0
0.193548 0.806452 0
0.225806 0.870968 0
0.193548 0.870968 0
0.225806 0.83871 0
0.193548 0.83871 0
0.225806 0.903226 0
0.193548 0.903226 0
0.225806 0.870968 0
0.193548 0.870968 0
0.225806 0.935484 0
0.193548 0.935484 0
0.225806 0.903226 0
0.193548 0.903226 0
0.225806 0.967742 0
0.193548 0.967742 0
0.225806 0.935484 0
0.193548 0.935484 0
0.258064 0.516129 0
0.225806 0.516129 0
0.258064 0.483871 0
0.225806 0.483871 0
0.258064 0.548387 0
0.225806 0.548387 0
0.258064 0.516129 0
0.225806 0.516129 0
0.258064 0.580645 0
0.225806 0.580645 0
0.258064 0.548387 0
0.225806 0.548387 0
0.258064 0.612903 0
0.225806 0.612903 0
0.258064 0.580645 0
0.225806 0.580645 0
0.258064 0.645161 0
0.225806 0.645161 0
0.258064 0.612903 0
0.225806 0.612903 0
0.258064 0.677419 0
0.225806 0.677419 0
0.258064 0.645161 0
0.225806 0.645161 0
0.258064 0.709677 0
0.225806 0.709677 0
0.258064 0.677419 0
0.225806 0.677419 0
0.258064 0.741935 0
0.225806 0.741935 0
0.258064 0.709677 0
0.225806 0.709677 0
0.258064 0.774193 0
0.225806 0.774193 0
0.258064 0.741935 0
0.225806 0.741935 0
0.258064 0.806452 0
0.225806 0.806452 0
0.258064 0.774193 0
0.225806 0.774193 0
0.258064 0.83871 0
0.225806 0.83871 0
0.258064 0.806452 0
0.225806 0.806452 0
0.258064 0.870968 0
0.225806 0.870968 0
0.258064 0.83871 0
0.225806 0.83871 0
0.258064 0.903226 0
0.225806 0.903226 0
0.258064 0.870968 0
0.225806 0.870968 0
0.258064 0.935484 0
0.225806 0.935484 0
0.258064 0.903226 0
0.225806 0.903226 0
0.258064 0.967742 0
0.225806 0.967742 0
0.258064 0.935484 0
0.225806 0.935484 0
0.290323 0.516129 0
0.258064 0.516129 0
0.290323 0.483871 0
0.258064 0.483871 0
0.290323 0.548387 0
0.258064 0.548387 0
0.290323 0.516129 0
0.258064 0.516129 0
0.290323 0.580645 0
0.258064 0.580645 0
0.290323 0.548387 0
0.258064 0.548387 0
0.290323 0.612903 0
0.258064 0.612903 0
0.290323 0.580645 0
0.258064 0.580645 0
0.290323 0.645161 0
0.258064 0.645161 0
[...]
POINT_DATA 2700
VECTORS u double
0.0133788 0.0853553 0
0.0133586 0.09 0
0.00880788 0.0853737 0
0.00878509 0.09 0
0.017852 0.0853389 0
0.0178344 0.09 0
0.0133788 0.0853553 0
0.0133586 0.09 0
0.0222402 0.0853245 0
0.0222251 0.09 0
0.017852 0.0853389 0
0.0178344 0.09 0
0.0265561 0.0853122 0
0.0265437 0.09 0
0.0222402 0.0853245 0
0.0222251 0.09 0
0.030813 0.0853022 0
0.0308035 0.09 0
0.0265561 0.0853122 0
0.0265437 0.09 0
0.035025 0.0852948 0
0.0350185 0.09 0
0.030813 0.0853022 0
0.0308035 0.09 0
0.0392069 0.0852902 0
0.0392037 0.09 0
0.035025 0.0852948 0
0.0350185 0.09 0
0.0433745 0.0852885 0
0.0433747 0.09 0
0.0392069 0.0852902 0
0.0392037 0.09 0
0.0475443 0.0852899 0
0.0475481 0.09 0
0.0433745 0.0852885 0
0.0433747 0.09 0
0.0517335 0.0852945 0
0.0517411 0.09 0
0.0475443 0.0852899 0
0.0475481 0.09 0
0.0559601 0.0853023 0
0.0559715 0.09 0
0.0517335 0.0852945 0
0.0517411 0.09 0
0.0602425 0.0853135 0
0.0602578 0.09 0
0.0559601 0.0853023 0
0.0559715 0.09 0
0.0645997 0.0853282 0
0.064619 0.09 0
0.0602425 0.0853135 0
0.0602578 0.09 0
0.0690511 0.0853464 0
0.0690745 0.09 0
0.0645997 0.0853282 0
0.064619 0.09 0
0.0736161 0.0853682 0
0.0736435 0.09 0
0.0690511 0.0853464 0
0.0690745 0.09 0
0.0134392 0.0807161 0
0.0133788 0.0853553 0
0.00887612 0.0807529 0
0.00880788 0.0853737 0
0.017905 0.0806834 0
0.017852 0.0853389 0
0.0134392 0.0807161 0
0.0133788 0.0853553 0
0.0222856 0.0806546 0
0.0222402 0.0853245 0
0.017905 0.0806834 0
0.017852 0.0853389 0
0.0265934 0.0806301 0
0.0265561 0.0853122 0
0.0222856 0.0806546 0
0.0222402 0.0853245 0
0.0308416 0.0806103 0
0.030813 0.0853022 0
0.0265934 0.0806301 0
0.0265561 0.0853122 0
0.0350443 0.0805957 0
0.035025 0.0852948 0
0.0308416 0.0806103 0
0.030813 0.0853022 0
0.0392163 0.0805868 0
0.0392069 0.0852902 0
0.0350443 0.0805957 0
0.035025 0.0852948 0
0.0433736 0.0805838 0
0.0433745 0.0852885 0
0.0392163 0.0805868 0
0.0392069 0.0852902 0
0.0475327 0.0805869 0
0.0475443 0.0852899 0
0.0433736 0.0805838 0
0.0433745 0.0852885 0
0.0517109 0.0805964 0
0.0517335 0.0852945 0
0.0475327 0.0805869 0
0.0475443 0.0852899 0
0.055926 0.0806123 0
0.0559601 0.0853023 0
0.0517109 0.0805964 0
0.0517335 0.0852945 0
0.0601966 0.0806348 0
0.0602425 0.0853135 0
0.055926 0.0806123 0
0.0559601 0.0853023 0
0.0645418 0.0806642 0
0.0645997 0.0853282 0
0.0601966 0.0806348 0
0.0602425 0.0853135 0
0.0689809 0.0807007 0
0.0690511 0.0853464 0
0.0645418 0.0806642 0
0.0645997 0.0853282 0
0.0735338 0.0807443 0
0.0736161 0.0853682 0
0.0689809 0.0807007 0
0.0690511 0.0853464 0
0.0135397 0.076088 0
0.0134392 0.0807161 0
0.00898941 0.076143 0
0.00887612 0.0807529 0
0.0179933 0.0760389 0
0.017905 0.0806834 0
0.0135397 0.076088 0
0.0134392 0.0807161 0
0.0223613 0.0759959 0
0.0222856 0.0806546 0
0.0179933 0.0760389 0
0.017905 0.0806834 0
0.0266556 0.0759594 0
0.0265934 0.0806301 0
0.0223613 0.0759959 0
0.0222856 0.0806546 0
0.0308893 0.0759301 0
0.0308416 0.0806103 0
0.0266556 0.0759594 0
0.0265934 0.0806301 0
0.0350763 0.0759089 0
0.0350443 0.0805957 0
0.0308893 0.0759301 0
0.0308416 0.0806103 0
0.0392318 0.0758963 0
0.0392163 0.0805868 0
0.0350763 0.0759089 0
0.0350443 0.0805957 0
0.0433719 0.0758927 0
0.0433736 0.0805838 0
0.0392318 0.0758963 0
0.0392163 0.0805868 0
0.0475131 0.0758983 0
0.0475327 0.0805869 0
0.0433719 0.0758927 0
0.0433736 0.0805838 0
0.0516728 0.0759132 0
0.0517109 0.0805964 0
0.0475131 0.0758983 0
0.0475327 0.0805869 0
0.055869 0.0759376 0
0.055926 0.0806123 0
0.0516728 0.0759132 0
0.0517109 0.0805964 0
0.0601201 0.0759718 0
0.0601966 0.0806348 0
0.055869 0.0759376 0
0.055926 0.0806123 0
0.0644451 0.0760162 0
0.0645418 0.0806642 0
0.0601201 0.0759718 0
0.0601966 0.0806348 0
0.0688638 0.076071 0
0.0689809 0.0807007 0
0.0644451 0.0760162 0
0.0645418 0.0806642 0
0.0733964 0.0761364 0
0.0735338 0.0807443 0
0.0688638 0.076071 0
0.0689809 0.0807007 0
0.0136802 0.0714758 0
0.0135397 0.076088 0
0.0091471 0.0715488 0
0.00898941 0.076143 0
0.018117 0.0714106 0
0.0179933 0.0760389 0
0.0136802 0.0714758 0
0.0135397 0.076088 0
0.0224674 0.0713534 0
0.0223613 0.0759959 0
0.018117 0.0714106 0
0.0179933 0.0760389 0
0.0267427 0.0713052 0
0.0266556 0.0759594 0
0.0224674 0.0713534 0
0.0223613 0.0759959 0
0.0309557 0.0712671 0
0.0308893 0.0759301 0
0.0267427 0.0713052 0
0.0266556 0.0759594 0
0.0351207 0.0712402 0
0.0350763 0.0759089 0
0.0309557 0.0712671 0
0.0308893 0.0759301 0
0.0392529 0.0712252 0
0.0392318 0.0758963 0
0.0351207 0.0712402 0
0.0350763 0.0759089 0
0.0433687 0.0712222 0
0.0433719 0.0758927 0
0.0392529 0.0712252 0
0.0392318 0.0758963 0
0.047485 0.0712314 0
0.0475131 0.0758983 0
0.0433687 0.0712222 0
0.0433719 0.0758927 0
0.0516192 0.0712528 0
0.0516728 0.0759132 0
0.047485 0.0712314 0
0.0475131 0.0758983 0
0.055789 0.0712865 0
0.055869 0.0759376 0
0.0516192 0.0712528 0
0.0516728 0.0759132 0
0.0600129 0.0713328 0
0.0601201 0.0759718 0
0.055789 0.0712865 0
0.055869 0.0759376 0
0.0643099 0.0713923 0
0.0644451 0.0760162 0
0.0600129 0.0713328 0
0.0601201 0.0759718 0
0.0686999 0.0714656 0
0.0688638 0.076071 0
0.0643099 0.0713923 0
0.0644451 0.0760162 0
0.0732036 0.0715529 0
0.0733964 0.0761364 0
0.0686999 0.0714656 0
0.0688638 0.076071 0
0.0138604 0.066884 0
0.0136802 0.0714758 0
0.00934832 0.0669747 0
0.0091471 0.0715488 0
0.0182763 0.0668026 0
0.018117 0.0714106 0
0.0138604 0.066884 0
0.0136802 0.0714758 0
0.0226043 0.0667315 0
0.0224674 0.0713534 0
0.0182763 0.0668026 0
0.018117 0.0714106 0
0.0268548 0.0666722 0
0.0267427 0.0713052 0
0.0226043 0.0667315 0
0.0224674 0.0713534 0
0.0310408 0.0666265 0
0.0309557 0.0712671 0
0.0268548 0.0666722 0
0.0267427 0.0713052 0
0.0351767 0.0665955 0
0.0351207 0.0712402 0
0.0310408 0.0666265 0
0.0309557 0.0712671 0
0.0392786 0.0665798 0
0.0392529 0.0712252 0
0.0351767 0.0665955 0
0.0351207 0.0712402 0
0.0433633 0.0665793 0
0.0433687 0.0712222 0
0.0392786 0.0665798 0
0.0392529 0.0712252 0
0.0474477 0.0665939 0
0.047485 0.0712314 0
0.0433633 0.0665793 0
0.0433687 0.0712222 0
0.0515492 0.0666233 0
0.0516192 0.0712528 0
0.0474477 0.0665939 0
0.047485 0.0712314 0
0.0556856 0.0666674 0
0.055789 0.0712865 0
0.0515492 0.0666233 0
0.0516192 0.0712528 0
0.0598749 0.0667265 0
0.0600129 0.0713328 0
0.0556856 0.0666674 0
0.055789 0.0712865 0
0.0641362 0.0668015 0
0.0643099 0.0713923 0
0.0598749 0.0667265 0
0.0600129 0.0713328 0
0.0684892 0.0668933 0
0.0686999 0.0714656 0
0.0641362 0.0668015 0
0.0643099 0.0713923 0
0.0729552 0.0670026 0
0.0732036 0.0715529 0
0.0684892 0.0668933 0
0.0686999 0.0714656 0
0.0140804 0.0623157 0
0.0138604 0.066884 0
0.00959208 0.062424 0
0.00934832 0.0669747 0
0.0184717 0.0622183 0
0.0182763 0.0668026 0
0.0140804 0.0623157 0
0.0138604 0.066884 0
0.0227722 0.0621336 0
0.0226043 0.0667315 0
0.0184717 0.0622183 0
0.0182763 0.0668026 0
0.0269917 0.0620644 0
0.0268548 0.0666722 0
0.0227722 0.0621336 0
0.0226043 0.0667315 0
0.0311436 0.0620128 0
0.0310408 0.0666265 0
0.0269917 0.0620644 0
0.0268548 0.0666722 0
0.0352432 0.0619801 0
0.0351767 0.0665955 0
0.0311436 0.0620128 0
0.0310408 0.0666265 0
0.0393076 0.0619666 0
0.0392786 0.0665798 0
0.0352432 0.0619801 0
0.0351767 0.0665955 0
0.043354 0.0619716 0
0.0433633 0.0665793 0
0.0393076 0.0619666 0
0.0392786 0.0665798 0
0.0473998 0.0619941 0
0.0474477 0.0665939 0
0.043354 0.0619716 0
0.0433633 0.0665793 0
0.0514621 0.0620335 0
0.0515492 0.0666233 0
0.0473998 0.0619941 0
0.0474477 0.0665939 0
0.0555584 0.0620894 0
0.0556856 0.0666674 0
0.0514621 0.0620335 0
0.0515492 0.0666233 0
0.0597062 0.0621623 0
0.0598749 0.0667265 0
0.0555584 0.0620894 0
0.0556856 0.0666674 0
0.0639241 0.0622532 0
0.0641362 0.0668015 0
0.0597062 0.0621623 0
0.0598749 0.0667265 0
0.068232 0.0623634 0
0.0684892 0.0668933 0
0.0639241 0.0622532 0
0.0641362 0.0668015 0
0.0726512 0.0624947 0
0.0729552 0.0670026 0
0.068232 0.0623634 0
0.0684892 0.0668933 0
0.0143404 0.0577729 0
0.0140804 0.0623157 0
0.00987733 0.0578986 0
0.00959208 0.062424 0
0.0187039 0.0576595 0
0.0184717 0.0622183 0
0.0143404 0.0577729 0
0.0140804 0.0623157 0
0.0229716 0.0575619 0
0.0227722 0.0621336 0
0.0187039 0.0576595 0
0.0184717 0.0622183 0
0.027153 0.0574845 0
0.0269917 0.0620644 0
0.0229716 0.0575619 0
0.0227722 0.0621336 0
0.0312627 0.0574301 0
0.0311436 0.0620128 0
0.027153 0.0574845 0
0.0269917 0.0620644 0
0.035318 0.0573998 0
0.0352432 0.0619801 0
0.0312627 0.0574301 0
0.0311436 0.0620128 0
0.0393374 0.0573926 0
0.0393076 0.0619666 0
0.035318 0.0573998 0
0.0352432 0.0619801 0
0.0433387 0.0574069 0
0.043354 0.0619716 0
0.0393374 0.0573926 0
0.0393076 0.0619666 0
0.0473396 0.0574408 0
0.0473998 0.0619941 0
0.0433387 0.0574069 0
0.043354 0.0619716 0
0.0513568 0.0574929 0
0.0514621 0.0620335 0
0.0473396 0.0574408 0
0.0473998 0.0619941 0
0.0554068 0.0575626 0
0.0555584 0.0620894 0
0.0513568 0.0574929 0
0.0514621 0.0620335 0
0.0595067 0.0576502 0
0.0597062 0.0621623 0
0.0554068 0.0575626 0
0.0555584 0.0620894 0
0.0636742 0.0577573 0
0.0639241 0.0622532 0
0.0595067 0.0576502 0
0.0597062 0.0621623 0
0.0679288 0.0578861 0
0.068232 0.0623634 0
0.0636742 0.0577573 0
0.0639241 0.0622532 0
0.0722918 0.058039 0
0.0726512 0.0624947 0
0.0679288 0.0578861 0
0.068232 0.0623634 0
0.0146416 0.0532553 0
0.0143404 0.0577729 0
0.0102032 0.0533984 0
0.00987733 0.0578986 0
0.0189745 0.0531257 0
0.0187039 0.0576595 0
0.0146416 0.0532553 0
0.0143404 0.0577729 0
0.0232028 0.0530166 0
0.0229716 0.0575619 0
0.0189745 0.0531257 0
0.0187039 0.0576595 0
0.0273373 0.0529343 0
0.027153 0.0574845 0
0.0232028 0.0530166 0
0.0229716 0.0575619 0
0.0313954 0.0528822 0
0.0312627 0.0574301 0
0.0273373 0.0529343 0
0.027153 0.0574845 0
0.0353977 0.0528601 0
0.035318 0.0573998 0
0.0313954 0.0528822 0
0.0312627 0.0574301 0
0.0393643 0.0528653 0
0.0393374 0.0573926 0
0.0353977 0.0528601 0
0.035318 0.0573998 0
0.0433143 0.0528944 0
0.0433387 0.0574069 0
0.0393643 0.0528653 0
0.0393374 0.0573926 0
0.0472647 0.0529441 0
0.0473396 0.0574408 0
0.0433143 0.0528944 0
0.0433387 0.0574069 0
0.0512316 0.0530122 0
0.0513568 0.0574929 0
0.0472647 0.0529441 0
0.0473396 0.0574408 0
0.0552304 0.0530977 0
0.0554068 0.0575626 0
0.0512316 0.0530122 0
0.0513568 0.0574929 0
0.0592768 0.0532013 0
0.0595067 0.0576502 0
0.0552304 0.0530977 0
0.0554068 0.0575626 0
0.0633874 0.053325 0
0.0636742 0.0577573 0
0.0592768 0.0532013 0
0.0595067 0.0576502 0
0.0675808 0.0534719 0
0.0679288 0.0578861 0
0.0633874 0.053325 0
0.0636742 0.0577573 0
0.071878 0.053646 0
0.0722918 0.058039 0
0.0675808 0.0534719 0
0.0679288 0.0578861 0
0.0149863 0.0487591 0
0.0146416 0.0532553 0
0.0105694 0.0489201 0
0.0102032 0.0533984 0
0.0192856 0.0486133 0
0.0189745 0.0531257 0
0.0149863 0.0487591 0
0.0146416 0.0532553 0
0.0234657 0.0484952 0
0.0232028 0.0530166 0
0.0192856 0.0486133 0
0.0189745 0.0531257 0
0.0275416 0.0484141 0
0.0273373 0.0529343 0
0.0234657 0.0484952 0
0.0232028 0.0530166 0
0.0315369 0.0483726 0
0.0313954 0.0528822 0
0.0275416 0.0484141 0
0.0273373 0.0529343 0
0.0354765 0.0483677 0
0.0353977 0.0528601 0
0.0315369 0.0483726 0
0.0313954 0.0528822 0
0.0393833 0.0483937 0
0.0393643 0.0528653 0
0.0354765 0.0483677 0
0.0353977 0.0528601 0
0.0432763 0.0484445 0
0.0433143 0.0528944 0
0.0393833 0.0483937 0
0.0393643 0.0528653 0
0.047172 0.0485152 0
0.0472647 0.0529441 0
0.0432763 0.0484445 0
0.0433143 0.0528944 0
0.0510849 0.0486029 0
0.0512316 0.0530122 0
0.047172 0.0485152 0
0.0472647 0.0529441 0
0.0550286 0.0487066 0
0.0552304 0.0530977 0
0.0510849 0.0486029 0
0.0512316 0.0530122 0
0.059017 0.0488272 0
0.0592768 0.0532013 0
0.0550286 0.0487066 0
0.0552304 0.0530977 0
0.063065 0.0489676 0
0.0633874 0.053325 0
0.059017 0.0488272 0
0.0592768 0.0532013 0
0.0671898 0.0491321 0
0.0675808 0.0534719 0
0.063065 0.0489676 0
0.0633874 0.053325 0
0.0714116 0.0493264 0
0.071878 0.053646 0
0.0671898 0.0491321 0
0.0675808 0.0534719 0
0.0153797 0.0442751 0
0.0149863 0.0487591 0
0.010977 0.0444559 0
0.0105694 0.0489201 0
0.0196404 0.0441136 0
0.0192856 0.0486133 0
0.0153797 0.0442751 0
0.0149863 0.0487591 0
0.0237586 0.0439925 0
0.0234657 0.0484952 0
0.0196404 0.0441136 0
0.0192856 0.0486133 0
0.0277598 0.043924 0
0.0275416 0.0484141 0
0.0237586 0.0439925 0
0.0234657 0.0484952 0
0.0316787 0.0439067 0
0.0315369 0.0483726 0
0.0277598 0.043924 0
0.0275416 0.0484141 0
0.0355463 0.0439319 0
0.0354765 0.0483677 0
0.0316787 0.0439067 0
0.0315369 0.0483726 0
0.0393871 0.0439893 0
0.0393833 0.0483937 0
0.0355463 0.0439319 0
0.0354765 0.0483677 0
0.0432197 0.0440697 0
0.0432763 0.0484445 0
0.0393871 0.0439893 0
0.0393833 0.0483937 0
0.0470582 0.0441672 0
0.047172 0.0485152 0
0.0432197 0.0440697 0
0.0432763 0.0484445 0
0.0509149 0.0442782 0
0.0510849 0.0486029 0
0.0470582 0.0441672 0
0.047172 0.0485152 0
0.0548011 0.0444021 0
0.0550286 0.0487066 0
0.0509149 0.0442782 0
0.0510849 0.0486029 0
0.0587283 0.0445406 0
0.059017 0.0488272 0
0.0548011 0.0444021 0
0.0550286 0.0487066 0
0.0627091 0.0446974 0
0.063065 0.0489676 0
0.0587283 0.0445406 0
0.059017 0.0488272 0
0.0667586 0.0448784 0
0.0671898 0.0491321 0
0.0627091 0.0446974 0
0.063065 0.0489676 0
0.0708955 0.0450915 0
0.0714116 0.0493264 0
0.0667586 0.0448784 0
0.0671898 0.0491321 0
0.0158315 0.0397857 0
0.0153797 0.0442751 0
0.01143 0.0399884 0
0.010977 0.0444559 0
0.0200425 0.0396104 0
0.0196404 0.0441136 0
0.0158315 0.0397857 0
0.0153797 0.0442751 0
0.0240747 0.0395009 0
0.0237586 0.0439925 0
0.0200425 0.0396104 0
0.0196404 0.0441136 0
0.0279793 0.0394658 0
0.0277598 0.043924 0
0.0240747 0.0395009 0
0.0237586 0.0439925 0
0.0318073 0.039494 0
0.0316787 0.0439067 0
0.0279793 0.0394658 0
0.0277598 0.043924 0
0.0355956 0.0395664 0
0.0355463 0.0439319 0
0.0318073 0.039494 0
0.0316787 0.0439067 0
0.0393675 0.0396673 0
0.0393871 0.0439893 0
0.0355956 0.0395664 0
0.0355463 0.0439319 0
0.0431385 0.0397857 0
0.0432197 0.0440697 0
0.0393675 0.0396673 0
0.0393871 0.0439893 0
0.0469198 0.039915 0
0.0470582 0.0441672 0
0.0431385 0.0397857 0
0.0432197 0.0440697 0
0.0507204 0.0400523 0
0.0509149 0.0442782 0
0.0469198 0.039915 0
0.0470582 0.0441672 0
0.0545484 0.0401977 0
0.0548011 0.0444021 0
0.0507204 0.0400523 0
0.0509149 0.0442782 0
0.0584125 0.0403541 0
0.0587283 0.0445406 0
0.0545484 0.0401977 0
0.0548011 0.0444021 0
0.0623226 0.0405265 0
0.0627091 0.0446974 0
0.0584125 0.0403541 0
0.0587283 0.0445406 0
0.0662912 0.0407226 0
0.0667586 0.0448784 0
0.0623226 0.0405265 0
0.0627091 0.0446974 0
0.0703342 0.0409523 0
0.0708955 0.0450915 0
0.0662912 0.0407226 0
0.0667586 0.0448784 0
0.0163604 0.0352532 0
0.0158315 0.0397857 0
0.0119413 0.0354878 0
0.01143 0.0399884 0
0.0204901 0.0350793 0
0.0200425 0.0396104 0
0.0163604 0.0352532 0
0.0158315 0.0397857 0
0.0243953 0.0350131 0
0.0240747 0.0395009 0
0.0204901 0.0350793 0
0.0200425 0.0396104 0
0.0281764 0.0350516 0
0.0279793 0.0394658 0
0.0243953 0.0350131 0
0.0240747 0.0395009 0
0.0319041 0.0351542 0
0.0318073 0.039494 0
0.0281764 0.0350516 0
0.0279793 0.0394658 0
0.0356111 0.0352924 0
0.0355956 0.0395664 0
0.0319041 0.0351542 0
0.0318073 0.039494 0
0.0393156 0.0354481 0
0.0393675 0.0396673 0
0.0356111 0.0352924 0
0.0355956 0.0395664 0
0.0430278 0.0356107 0
0.0431385 0.0397857 0
0.0393156 0.0354481 0
0.0393675 0.0396673 0
0.0467545 0.0357752 0
0.0469198 0.039915 0
0.0430278 0.0356107 0
0.0431385 0.0397857 0
0.0505009 0.0359401 0
0.0507204 0.0400523 0
0.0467545 0.0357752 0
0.0469198 0.039915 0
0.0542717 0.0361071 0
0.0545484 0.0401977 0
0.0505009 0.0359401 0
0.0507204 0.0400523 0
0.0580724 0.0362804 0
0.0584125 0.0403541 0
0.0542717 0.0361071 0
0.0545484 0.0401977 0
0.0619097 0.0364668 0
0.0623226 0.0405265 0
0.0580724 0.0362804 0
0.0584125 0.0403541 0
0.0657928 0.0366757 0
0.0662912 0.0407226 0
0.0619097 0.0364668 0
0.0623226 0.0405265 0
0.0697341 0.0369193 0
0.0703342 0.0409523 0
0.0657928 0.0366757 0
0.0662912 0.0407226 0
0.0169954 0.0306205 0
0.0163604 0.0352532 0
0.0125422 0.030868 0
0.0119413 0.0354878 0
0.02096 0.0304795 0
0.0204901 0.0350793 0
0.0169954 0.0306205 0
0.0163604 0.0352532 0
0.024671 0.0305503 0
0.0243953 0.0350131 0
0.02096 0.0304795 0
0.0204901 0.0350793 0
0.0283186 0.0307164 0
0.0281764 0.0350516 0
0.024671 0.0305503 0
0.0243953 0.0350131 0
0.031948 0.0309224 0
0.0319041 0.0351542 0
0.0283186 0.0307164 0
0.0281764 0.0350516 0
0.0355807 0.0311403 0
0.0356111 0.0352924 0
0.031948 0.0309224 0
0.0319041 0.0351542 0
0.0392249 0.0313569 0
0.0393156 0.0354481 0
0.0355807 0.0311403 0
0.0356111 0.0352924 0
0.0428846 0.0315657 0
0.0430278 0.0356107 0
0.0392249 0.0313569 0
0.0393156 0.0354481 0
0.0465617 0.0317652 0
0.0467545 0.0357752 0
0.0428846 0.0315657 0
0.0430278 0.0356107 0
0.0502576 0.0319565 0
0.0505009 0.0359401 0
0.0465617 0.0317652 0
0.0467545 0.0357752 0
0.0539737 0.0321432 0
0.0542717 0.0361071 0
0.0502576 0.0319565 0
0.0505009 0.0359401 0
0.057712 0.0323313 0
0.0580724 0.0362804 0
0.0539737 0.0321432 0
0.0542717 0.0361071 0
0.0614757 0.0325292 0
0.0619097 0.0364668 0
0.057712 0.0323313 0
0.0580724 0.0362804 0
0.0652701 0.032748 0
0.0657928 0.0366757 0
0.0614757 0.0325292 0
0.0619097 0.0364668 0
0.0691033 0.0330018 0
0.0697341 0.0369193 0
0.0652701 0.032748 0
0.0657928 0.0366757 0
0.0177571 0.0256794 0
0.0169954 0.0306205 0
0.0134023 0.0260797 0
0.0125422 0.030868 0
0.0213111 0.0258786 0
0.02096 0.0304795 0
0.0177571 0.0256794 0
0.0169954 0.0306205 0
0.0248432 0.0261974 0
0.024671 0.0305503 0
0.0213111 0.0258786 0
0.02096 0.0304795 0
0.0283738 0.0265305 0
0.0283186 0.0307164 0
0.0248432 0.0261974 0
0.024671 0.0305503 0
0.0319248 0.0268501 0
0.031948 0.0309224 0
0.0283738 0.0265305 0
0.0283186 0.0307164 0
0.0354982 0.0271479 0
0.0355807 0.0311403 0
0.0319248 0.0268501 0
0.031948 0.0309224 0
0.0390937 0.0274215 0
0.0392249 0.0313569 0
0.0354982 0.0271479 0
0.0355807 0.0311403 0
0.0427095 0.0276718 0
0.0428846 0.0315657 0
0.0390937 0.0274215 0
0.0392249 0.0313569 0
0.0463437 0.0279014 0
0.0465617 0.0317652 0
0.0427095 0.0276718 0
0.0428846 0.0315657 0
0.049994 0.0281147 0
0.0502576 0.0319565 0
0.0463437 0.0279014 0
0.0465617 0.0317652 0
0.0536587 0.0283172 0
0.0539737 0.0321432 0
0.049994 0.0281147 0
0.0502576 0.0319565 0
0.0573365 0.0285165 0
0.057712 0.0323313 0
0.0536587 0.0283172 0
0.0539737 0.0321432 0
0.0610269 0.0287225 0
0.0614757 0.0325292 0
0.0573365 0.0285165 0
0.057712 0.0323313 0
0.064731 0.0289474 0
0.0652701 0.032748 0
0.0610269 0.0287225 0
0.0614757 0.0325292 0
0.0684518 0.0292073 0
0.0691033 0.0330018 0
0.064731 0.0289474 0
0.0652701 0.032748 0
0.0180808 0.020828 0
0.0177571 0.0256794 0
0.0149844 0.0198905 0
0.0134023 0.0260797 0
0.0214655 0.0215547 0
0.0213111 0.0258786 0
0.0180808 0.020828 0
0.0177571 0.0256794 0
0.0248758 0.0221153 0
0.0248432 0.0261974 0
0.0214655 0.0215547 0
0.0213111 0.0258786 0
0.028337 0.0225874 0
0.0283738 0.0265305 0
0.0248758 0.0221153 0
0.0248432 0.0261974 0
0.0318361 0.0229953 0
0.0319248 0.0268501 0
0.028337 0.0225874 0
0.0283738 0.0265305 0
0.0353681 0.0233525 0
0.0354982 0.0271479 0
0.0318361 0.0229953 0
0.0319248 0.0268501 0
0.0389272 0.0236674 0
0.0390937 0.0274215 0
0.0353681 0.0233525 0
0.0354982 0.0271479 0
0.0425081 0.0239469 0
0.0427095 0.0276718 0
0.0389272 0.0236674 0
0.0390937 0.0274215 0
0.0461057 0.0241973 0
0.0463437 0.0279014 0
0.0425081 0.0239469 0
0.0427095 0.0276718 0
0.0497154 0.024425 0
0.049994 0.0281147 0
0.0461057 0.0241973 0
0.0463437 0.0279014 0
0.0533325 0.0246373 0
0.0536587 0.0283172 0
0.0497154 0.024425 0
0.049994 0.0281147 0
0.0569524 0.024843 0
0.0573365 0.0285165 0
0.0533325 0.0246373 0
0.0536587 0.0283172 0
0.0605711 0.0250526 0
0.0610269 0.0287225 0
0.0569524 0.024843 0
0.0573365 0.0285165 0
0.0641849 0.0252795 0
0.064731 0.0289474 0
0.0605711 0.0250526 0
0.0610269 0.0287225 0
0.0677912 0.0255406 0
0.0684518 0.0292073 0
0.0641849 0.0252795 0
0.064731 0.0289474 0
0.0182346 0.0171627 0
0.0180808 0.020828 0
0.0154593 0.0164483 0
0.0149844 0.0198905 0
0.0214638 0.0178451 0
0.0214655 0.0215547 0
0.0182346 0.0171627 0
0.0180808 0.020828 0
0.0248199 0.018449 0
0.0248758 0.0221153 0
0.0214638 0.0178451 0
0.0214655 0.0215547 0
0.0282376 0.0189612 0
0.028337 0.0225874 0
0.0248199 0.018449 0
0.0248758 0.0221153 0
0.0317034 0.0194005 0
0.0318361 0.0229953 0
0.0282376 0.0189612 0
0.028337 0.0225874 0
0.0352061 0.0197805 0