# vtk DataFile Version 3.0
#This file was generated by the deal.II library on 2021/1/5 at 13:55:19
ASCII
DATASET UNSTRUCTURED_GRID

POINTS 2700 double
0.0322581 0.516129 0
0 0.516129 0
0.0322581 0.483871 0
0 0.483871 0
0.0322581 0.548387 0
0 0.548387 0
0.0322581 0.516129 0
0 0.516129 0
0.0322581 0.580645 0
0 0.580645 0
0.0322581 0.548387 0
0 0.548387 0
0.0322581 0.612903 0
0 0.612903 0
0.0322581 0.580645 0
0 0.580645 0
0.0322581 0.645161 0
0 0.645161 0
0.0322581 0.612903 0
0 0.612903 0
0.0322581 0.677419 0
0 0.677419 0
0.0322581 0.645161 0
0 0.645161 0
0.0322581 0.709677 0
0 0.709677 0
0.0322581 0.677419 0
0 0.677419 0
0.0322581 0.741935 0
0 0.741935 0
0.0322581 0.709677 0
0 0.709677 0
0.0322581 0.774193 0
0 0.774193 0
0.0322581 0.741935 0
0 0.741935 0
0.0322581 0.806452 0
0 0.806452 0
0.0322581 0.774193 0
0 0.774193 0
0.0322581 0.83871 0
0 0.83871 0
0.0322581 0.806452 0
0 0.806452 0
0.0322581 0.870968 0
0 0.870968 0
0.0322581 0.83871 0
0 0.83871 0
0.0322581 0.903226 0
0 0.903226 0
0.0322581 0.870968 0
0 0.870968 0
0.0322581 0.935484 0
0 0.935484 0
0.0322581 0.903226 0
0 0.903226 0
0.0322581 0.967742 0
0 0.967742 0
0.0322581 0.935484 0
0 0.935484 0
0.0645161 0.516129 0
0.0322581 0.516129 0
0.0645161 0.483871 0
0.0322581 0.483871 0
0.0645161 0.548387 0
0.0322581 0.548387 0
0.0645161 0.516129 0
0.0322581 0.516129 0
0.0645161 0.580645 0
0.0322581 0.580645 0
0.0645161 0.548387 0
0.0322581 0.548387 0
0.0645161 0.612903 0
0.0322581 0.612903 0
0.0645161 0.580645 0
0.0322581 0.580645 0
0.0645161 0.645161 0
0.0322581 0.645161 0
0.0645161 0.612903 0
0.0322581 0.612903 0
0.0645161 0.677419 0
0.0322581 0.677419 0
0.0645161 0.645161 0
0.0322581 0.645161 0
0.0645161 0.709677 0
0.0322581 0.709677 0
0.0645161 0.677419 0
0.0322581 0.677419 0
0.0645161 0.741935 0
0.0322581 0.741935 0
0.0645161 0.709677 0
0.0322581 0.709677 0
0.0645161 0.774193 0
0.0322581 0.774193 0
0.0645161 0.741935 0
0.0322581 0.741935 0
0.0645161 0.806452 0
0.0322581 0.806452 0
0.0645161 0.774193 0
0.0322581 0.774193 0
0.0645161 0.83871 0
0.0322581 0.83871 0
0.0645161 0.806452 0
0.0322581 0.806452 0
0.0645161 0.870968 0
0.0322581 0.870968 0
0.0645161 0.83871 0
0.0322581 0.83871 0
0.0645161 0.903226 0
0.0322581 0.903226 0
0.0645161 0.870968 0
0.0322581 0.870968 0
0.0645161 0.935484 0
0.0322581 0.935484 0
0.0645161 0.903226 0
0.0322581 0.903226 0
0.0645161 0.967742 0
0.0322581 0.967742 0
0.0645161 0.935484 0
0.0322581 0.935484 0
0.0967742 0.516129 0
0.0645161 0.516129 0
0.0967742 0.483871 0
0.0645161 0.483871 0
0.0967742 0.548387 0
0.0645161 0.548387 0
0.0967742 0.516129 0
0.0645161 0.516129 0
0.0967742 0.580645 0
0.0645161 0.580645 0
0.0967742 0.548387 0
0.0645161 0.548387 0
0.0967742 0.612903 0
0.0645161 0.612903 0
0.0967742 0.580645 0
0.0645161 0.580645 0
0.0967742 0.645161 0
0.0645161 0.645161 0
0.0967742 0.612903 0
0.0645161 0.612903 0
0.0967742 0.677419 0
0.0645161 0.677419 0
0.0967742 0.645161 0
0.0645161 0.645161 0
0.0967742 0.709677 0
0.0645161 0.709677 0
0.0967742 0.677419 0
0.0645161 0.677419 0
0.0967742 0.741935 0
0.0645161 0.741935 0
0.0967742 0.709677 0
0.0645161 0.709677 0
0.0967742 0.774193 0
0.0645161 0.774193 0
0.0967742 0.741935 0
0.0645161 0.741935 0
0.0967742 0.806452 0
0.0645161 0.806452 0
0.0967742 0.774193 0
0.0645161 0.774193 0
0.0967742 0.83871 0
0.0645161 0.83871 0
0.0967742 0.806452 0
0.0645161 0.806452 0
0.0967742 0.870968 0
0.0645161 0.870968 0
0.0967742 0.83871 0
0.0645161 0.83871 0
0.0967742 0.903226 0
0.0645161 0.903226 0
0.0967742 0.870968 0
0.0645161 0.870968 0
0.0967742 0.935484 0
0.0645161 0.935484 0
0.0967742 0.903226 0
0.0645161 0.903226 0
0.0967742 0.967742 0
0.0645161 0.967742 0
0.0967742 0.935484 0
0.0645161 0.935484 0
0.129032 0.516129 0
0.0967742 0.516129 0
0.129032 0.483871 0
0.0967742 0.483871 0
0.129032 0.548387 0
0.0967742 0.548387 0
0.129032 0.516129 0
0.0967742 0.516129 0
0.129032 0.580645 0
0.0967742 0.580645 0
0.129032 0.548387 0
0.0967742 0.548387 0
0.129032 0.612903 0
0.0967742 0.612903 0
0.129032 0.580645 0
0.0967742 0.580645 0
0.129032 0.645161 0
0.0967742 0.645161 0
0.129032 0.612903 0
0.0967742 0.612903 0
0.129032 0.677419 0
0.0967742 0.677419 0
0.129032 0.645161 0
0.0967742 0.645161 0
0.129032 0.709677 0
0.0967742 0.709677 0
0.129032 0.677419 0
0.0967742 0.677419 0
0.129032 0.741935 0
0.0967742 0.741935 0
0.129032 0.709677 0
0.0967742 0.709677 0
0.129032 0.774193 0
0.0967742 0.774193 0
0.129032 0.741935 0
0.0967742 0.741935 0
0.129032 0.806452 0
0.0967742 0.806452 0
0.129032 0.774193 0
0.0967742 0.774193 0
0.129032 0.83871 0
0.0967742 0.83871 0
0.129032 0.806452 0
0.0967742 0.806452 0
0.129032 0.870968 0
0.0967742 0.870968 0
0.129032 0.83871 0
0.0967742 0.83871 0
0.129032 0.903226 0
0.0967742 0.903226 0
0.129032 0.870968 0
0.0967742 0.870968 0
0.129032 0.935484 0
0.0967742 0.935484 0
0.129032 0.903226 0
0.0967742 0.903226 0
0.129032 0.967742 0
0.0967742 0.967742 0
0.129032 0.935484 0
0.0967742 0.935484 0
0.16129 0.516129 0
0.129032 0.516129 0
0.16129 0.483871 0
0.129032 0.483871 0
0.16129 0.548387 0
0.129032 0.548387 0
0.16129 0.516129 0
0.129032 0.516129 0
0.16129 0.580645 0
0.129032 0.580645 0
0.16129 0.548387 0
0.129032 0.548387 0
0.16129 0.612903 0
0.129032 0.612903 0
0.16129 0.580645 0
0.129032 0.580645 0
0.16129 0.645161 0
0.129032 0.645161 0
0.16129 0.612903 0
0.129032 0.612903 0
0.16129 0.677419 0
0.129032 0.677419 0
0.16129 0.645161 0
0.129032 0.645161 0
0.16129 0.709677 0
0.129032 0.709677 0
0.16129 0.677419 0
0.129032 0.677419 0
0.16129 0.741935 0
0.129032 0.741935 0
0.16129 0.709677 0
0.129032 0.709677 0
0.16129 0.774193 0
0.129032 0.774193 0
0.16129 0.741935 0
0.129032 0.741935 0
0.16129 0.806452 0
0.129032 0.806452 0
0.16129 0.774193 0
0.129032 0.774193 0
0.16129 0.83871 0
0.129032 0.83871 0
0.16129 0.806452 0
0.129032 0.806452 0
0.16129 0.870968 0
0.129032 0.870968 0
0.16129 0.83871 0
0.129032 0.83871 0
0.16129 0.903226 0
0.129032 0.903226 0
0.16129 0.870968 0
0.129032 0.870968 0
0.16129 0.935484 0
0.129032 0.935484 0
0.16129 0.903226 0
0.129032 0.903226 0
0.16129 0.967742 0
0.129032 0.967742 0
0.16129 0.935484 0
0.129032 0.935484 0
0.193548 0.516129 0
0.16129 0.516129 0
0.193548 0.483871 0
0.16129 0.483871 0
0.193548 0.548387 0
0.16129 0.548387 0
0.193548 0.516129 0
0.16129 0.516129 0
0.193548 0.580645 0
0.16129 0.580645 0
0.193548 0.548387 0
0.16129 0.548387 0
0.193548 0.612903 0
0.16129 0.612903 0
0.193548 0.580645 0
0.16129 0.580645 0
0.193548 0.645161 0
0.16129 0.645161 0
0.193548 0.612903 0
0.16129 0.612903 0
0.193548 0.677419 0
0.16129 0.677419 0
0.193548 0.645161 0
0.16129 0.645161 0
0.193548 0.709677 0
0.16129 0.709677 0
0.193548 0.677419 0
0.16129 0.677419 0
0.193548 0.741935 0
0.16129 0.741935 0
0.193548 0.709677 0
0.16129 0.709677 0
0.193548 0.774193 0
0.16129 0.774193 0
0.193548 0.741935 0
0.16129 0.741935 0
0.193548 0.806452 0
0.16129 0.806452 0
0.193548 0.774193 0
0.16129 0.774193 0
0.193548 0.83871 0
0.16129 0.83871 0
0.193548 0.806452 0
0.16129 0.806452 0
0.193548 0.870968 0
0.16129 0.870968 0
0.193548 0.83871 0
0.16129 0.83871 0
0.193548 0.903226 0
0.16129 0.903226 0
0.193548 0.870968 0
0.16129 0.870968 0
0.193548 0.935484 0
0.16129 0.935484 0
0.193548 0.903226 0
0.16129 0.903226 0
0.193548 0.967742 0
0.16129 0.967742 0
0.193548 0.935484 0
0.16129 0.935484 0
0.225806 0.516129 0
0.193548 0.516129 0
0.225806 0.483871 0
0.193548 0.483871 0
0.225806 0.548387 0
0.193548 0.548387 0
0.225806 0.516129 0
0.193548 0.516129 0
0.225806 0.580645 0
0.193548 0.580645 0
0.225806 0.548387 0
0.193548 0.548387 0
0.225806 0.612903 0
0.193548 0.612903 0
0.225806 0.580645 0
0.193548 0.580645 0
0.225806 0.645161 0
0.193548 0.645161 0
0.225806 0.612903 0
0.193548 0.612903 0
0.225806 0.677419 0
0.193548 0.677419 0
0.225806 0.645161 0
0.193548 0.645161 0
0.225806 0.709677 0
0.193548 0.709677 0
0.225806 0.677419 0
0.193548 0.677419 0
0.225806 0.741935 0
0.193548 0.741935 0
0.225806 0.709677 0
0.193548 0.709677 0
0.225806 0.774193 0
0.193548 0.774193 0
0.225806 0.741935 0
0.193548 0.741935 0
0.225806 0.806452 0
0.193548 0.806452 0
0.225806 0.774193 0
0.193548 0.774193 0
0.225806 0.83871 0
0.193548 0.83871 0
0.225806 0.806452 0
0.193548 0.806452 0
0.225806 0.870968 0
0.193548 0.870968 0
0.225806 0.83871 0
0.193548 0.83871 0
0.225806 0.903226 0
0.193548 0.903226 0
0.225806 0.870968 0
0.193548 0.870968 0
0.225806 0.935484 0
0.193548 0.935484 0
0.225806 0.903226 0
0.193548 0.903226 0
0.225806 0.967742 0
0.193548 0.967742 0
0.225806 0.935484 0
0.193548 0.935484 0
0.258064 0.516129 0
0.225806 0.516129 0
0.258064 0.483871 0
0.225806 0.483871 0
0.258064 0.548387 0
0.225806 0.548387 0
0.258064 0.516129 0
0.225806 0.516129 0
0.258064 0.580645 0
0.225806 0.580645 0
0.258064 0.548387 0
0.225806 0.548387 0
0.258064 0.612903 0
0.225806 0.612903 0
0.258064 0.580645 0
0.225806 0.580645 0
0.258064 0.645161 0
0.225806 0.645161 0
0.258064 0.612903 0
0.225806 0.612903 0
0.258064 0.677419 0
0.225806 0.677419 0
0.258064 0.645161 0
0.225806 0.645161 0
0.258064 0.709677 0
0.225806 0.709677 0
0.258064 0.677419 0
0.225806 0.677419 0
0.258064 0.741935 0
0.225806 0.741935 0
0.258064 0.709677 0
0.225806 0.709677 0
0.258064 0.774193 0
0.225806 0.774193 0
0.258064 0.741935 0
0.225806 0.741935 0
0.258064 0.806452 0
0.225806 0.806452 0
0.258064 0.774193 0
0.225806 0.774193 0
0.258064 0.83871 0
0.225806 0.83871 0
0.258064 0.806452 0
0.225806 0.806452 0
0.258064 0.870968 0
0.225806 0.870968 0
0.258064 0.83871 0
0.225806 0.83871 0
0.258064 0.903226 0
0.225806 0.903226 0
0.258064 0.870968 0
0.225806 0.870968 0
0.258064 0.935484 0
0.225806 0.935484 0
0.258064 0.903226 0
0.225806 0.903226 0
0.258064 0.967742 0
0.225806 0.967742 0
0.258064 0.935484 0
0.225806 0.935484 0
0.290323 0.516129 0
0.258064 0.516129 0
0.290323 0.483871 0
0.258064 0.483871 0
0.290323 0.548387 0
0.258064 0.548387 0
0.290323 0.516129 0
0.258064 0.516129 0
0.290323 0.580645 0
0.258064 0.580645 0
0.290323 0.548387 0
0.258064 0.548387 0
0.290323 0.612903 0
0.258064 0.612903 0
0.290323 0.580645 0
0.258064 0.580645 0
0.290323 0.645161 0
0.258064 0.645161 0
[...]
POINT_DATA 2700
VECTORS u double
0.00297306 0.0189678 0
0.00296858 0.02 0
0.00195731 0.0189719 0
0.00195224 0.02 0
0.00396712 0.0189642 0
0.0039632 0.02 0
0.00297306 0.0189678 0
0.00296858 0.02 0
0.00494228 0.018961 0
0.00493892 0.02 0
0.00396712 0.0189642 0
0.0039632 0.02 0
0.00590136 0.0189583 0
0.0058986 0.02 0
0.00494228 0.018961 0
0.00493892 0.02 0
0.00684734 0.018956 0
0.00684522 0.02 0
0.00590136 0.0189583 0
0.0058986 0.02 0
0.00778333 0.0189544 0
0.00778189 0.02 0
0.00684734 0.018956 0
0.00684522 0.02 0
0.00871264 0.0189534 0
0.00871193 0.02 0
0.00778333 0.0189544 0
0.00778189 0.02 0
0.00963877 0.018953 0
0.00963883 0.02 0
0.00871264 0.0189534 0
0.00871193 0.02 0
0.0105654 0.0189533 0
0.0105662 0.02 0
0.00963877 0.018953 0
0.00963883 0.02 0
0.0114963 0.0189543 0
0.011498 0.02 0
0.0105654 0.0189533 0
0.0105662 0.02 0
0.0124356 0.0189561 0
0.0124381 0.02 0
0.0114963 0.0189543 0
0.011498 0.02 0
0.0133872 0.0189586 0
0.0133906 0.02 0
0.0124356 0.0189561 0
0.0124381 0.02 0
0.0143555 0.0189618 0
0.0143598 0.02 0
0.0133872 0.0189586 0
0.0133906 0.02 0
0.0153447 0.0189659 0
0.0153499 0.02 0
0.0143555 0.0189618 0
0.0143598 0.02 0
0.0163591 0.0189707 0
0.0163652 0.02 0
0.0153447 0.0189659 0
0.0153499 0.02 0
0.00298649 0.0179369 0
0.00297306 0.0189678 0
0.00197247 0.0179451 0
0.00195731 0.0189719 0
0.00397889 0.0179296 0
0.00396712 0.0189642 0
0.00298649 0.0179369 0
0.00297306 0.0189678 0
0.00495235 0.0179232 0
0.00494228 0.018961 0
0.00397889 0.0179296 0
0.00396712 0.0189642 0
0.00590965 0.0179178 0
0.00590136 0.0189583 0
0.00495235 0.0179232 0
0.00494228 0.018961 0
0.0068537 0.0179134 0
0.00684734 0.018956 0
0.00590965 0.0179178 0
0.00590136 0.0189583 0
0.00778762 0.0179102 0
0.00778333 0.0189544 0
0.0068537 0.0179134 0
0.00684734 0.018956 0
0.00871474 0.0179082 0
0.00871264 0.0189534 0
0.00778762 0.0179102 0
0.00778333 0.0189544 0
0.00963858 0.0179075 0
0.00963877 0.018953 0
0.00871474 0.0179082 0
0.00871264 0.0189534 0
0.0105628 0.0179082 0
0.0105654 0.0189533 0
0.00963858 0.0179075 0
0.00963877 0.018953 0
0.0114913 0.0179103 0
0.0114963 0.0189543 0
0.0105628 0.0179082 0
0.0105654 0.0189533 0
0.012428 0.0179138 0
0.0124356 0.0189561 0
0.0114913 0.0179103 0
0.0114963 0.0189543 0
0.013377 0.0179188 0
0.0133872 0.0189586 0
0.012428 0.0179138 0
0.0124356 0.0189561 0
0.0143426 0.0179254 0
0.0143555 0.0189618 0
0.013377 0.0179188 0
0.0133872 0.0189586 0
0.0153291 0.0179335 0
0.0153447 0.0189659 0
0.0143426 0.0179254 0
0.0143555 0.0189618 0
0.0163408 0.0179432 0
0.0163591 0.0189707 0
0.0153291 0.0179335 0
0.0153447 0.0189659 0
0.00300883 0.0169084 0
0.00298649 0.0179369 0
0.00199765 0.0169207 0
0.00197247 0.0179451 0
0.00399851 0.0168975 0
0.00397889 0.0179296 0
0.00300883 0.0169084 0
0.00298649 0.0179369 0
0.00496917 0.016888 0
0.00495235 0.0179232 0
0.00399851 0.0168975 0
0.00397889 0.0179296 0
0.00592347 0.0168799 0
0.00590965 0.0179178 0
0.00496917 0.016888 0
0.00495235 0.0179232 0
0.00686428 0.0168734 0
0.0068537 0.0179134 0
0.00592347 0.0168799 0
0.00590965 0.0179178 0
0.00779473 0.0168686 0
0.00778762 0.0179102 0
0.00686428 0.0168734 0
0.0068537 0.0179134 0
0.00871819 0.0168659 0
0.00871474 0.0179082 0
0.00779473 0.0168686 0
0.00778762 0.0179102 0
0.00963819 0.016865 0
0.00963858 0.0179075 0
0.00871819 0.0168659 0
0.00871474 0.0179082 0
0.0105585 0.0168663 0
0.0105628 0.0179082 0
0.00963819 0.016865 0
0.00963858 0.0179075 0
0.0114829 0.0168696 0
0.0114913 0.0179103 0
0.0105585 0.0168663 0
0.0105628 0.0179082 0
0.0124153 0.016875 0
0.012428 0.0179138 0
0.0114829 0.0168696 0
0.0114913 0.0179103 0
0.01336 0.0168826 0
0.013377 0.0179188 0
0.0124153 0.016875 0
0.012428 0.0179138 0
0.0143211 0.0168925 0
0.0143426 0.0179254 0
0.01336 0.0168826 0
0.013377 0.0179188 0
0.0153031 0.0169047 0
0.0153291 0.0179335 0
0.0143211 0.0168925 0
0.0143426 0.0179254 0
0.0163103 0.0169192 0
0.0163408 0.0179432 0
0.0153031 0.0169047 0
0.0153291 0.0179335 0
0.00304005 0.0158835 0
0.00300883 0.0169084 0
0.00203269 0.0158997 0
0.00199765 0.0169207 0
0.004026 0.015869 0
0.00399851 0.0168975 0
0.00304005 0.0158835 0
0.00300883 0.0169084 0
0.00499276 0.0158563 0
0.00496917 0.016888 0
0.004026 0.015869 0
0.00399851 0.0168975 0
0.00594283 0.0158456 0
0.00592347 0.0168799 0
0.00499276 0.0158563 0
0.00496917 0.016888 0
0.00687905 0.0158371 0
0.00686428 0.0168734 0
0.00594283 0.0158456 0
0.00592347 0.0168799 0
0.00780459 0.0158312 0
0.00779473 0.0168686 0
0.00687905 0.0158371 0
0.00686428 0.0168734 0
0.00872287 0.0158278 0
0.00871819 0.0168659 0
0.00780459 0.0158312 0
0.00779473 0.0168686 0
0.00963749 0.0158272 0
0.00963819 0.016865 0
0.00872287 0.0158278 0
0.00871819 0.0168659 0
0.0105522 0.0158292 0
0.0105585 0.0168663 0
0.00963749 0.0158272 0
0.00963819 0.016865 0
0.0114709 0.0158339 0
0.0114829 0.0168696 0
0.0105522 0.0158292 0
0.0105585 0.0168663 0
0.0123976 0.0158414 0
0.0124153 0.016875 0
0.0114709 0.0158339 0
0.0114829 0.0168696 0
0.0133362 0.0158517 0
0.01336 0.0168826 0
0.0123976 0.0158414 0
0.0124153 0.016875 0
0.0142911 0.015865 0
0.0143211 0.0168925 0
0.0133362 0.0158517 0
0.01336 0.0168826 0
0.0152667 0.0158812 0
0.0153031 0.0169047 0
0.0142911 0.015865 0
0.0143211 0.0168925 0
0.0162675 0.0159007 0
0.0163103 0.0169192 0
0.0152667 0.0158812 0
0.0153031 0.0169047 0
0.0030801 0.0148631 0
0.00304005 0.0158835 0
0.00207741 0.0148833 0
0.00203269 0.0158997 0
0.0040614 0.014845 0
0.004026 0.015869 0
0.0030801 0.0148631 0
0.00304005 0.0158835 0
0.00502317 0.0148292 0
0.00499276 0.0158563 0
0.0040614 0.014845 0
0.004026 0.015869 0
0.00596774 0.014816 0
0.00594283 0.0158456 0
0.00502317 0.0148292 0
0.00499276 0.0158563 0
0.00689795 0.0148059 0
0.00687905 0.0158371 0
0.00596774 0.014816 0
0.00594283 0.0158456 0
0.00781705 0.014799 0
0.00780459 0.0158312 0
0.00689795 0.0148059 0
0.00687905 0.0158371 0
0.00872859 0.0147955 0
0.00872287 0.0158278 0
0.00781705 0.014799 0
0.00780459 0.0158312 0
0.00963628 0.0147954 0
0.00963749 0.0158272 0
0.00872859 0.0147955 0
0.00872287 0.0158278 0
0.0105439 0.0147986 0
0.0105522 0.0158292 0
0.00963628 0.0147954 0
0.00963749 0.0158272 0
0.0114554 0.0148052 0
0.0114709 0.0158339 0
0.0105439 0.0147986 0
0.0105522 0.0158292 0
0.0123746 0.014815 0
0.0123976 0.0158414 0
0.0114554 0.0148052 0
0.0114709 0.0158339 0
0.0133055 0.0148281 0
0.0133362 0.0158517 0
0.0123746 0.014815 0
0.0123976 0.0158414 0
0.0142525 0.0148448 0
0.0142911 0.015865 0
0.0133055 0.0148281 0
0.0133362 0.0158517 0
0.0152198 0.0148652 0
0.0152667 0.0158812 0
0.0142525 0.0148448 0
0.0142911 0.015865 0
0.0162123 0.0148895 0
0.0162675 0.0159007 0
0.0152198 0.0148652 0
0.0152667 0.0158812 0
0.00312898 0.0138479 0
0.0030801 0.0148631 0
0.00213157 0.013872 0
0.00207741 0.0148833 0
0.00410482 0.0138263 0
0.0040614 0.014845 0
0.00312898 0.0138479 0
0.0030801 0.0148631 0
0.00506049 0.0138075 0
0.00502317 0.0148292 0
0.00410482 0.0138263 0
0.0040614 0.014845 0
0.00599817 0.0137921 0
0.00596774 0.014816 0
0.00506049 0.0138075 0
0.00502317 0.0148292 0
0.00692079 0.0137806 0
0.00689795 0.0148059 0
0.00599817 0.0137921 0
0.00596774 0.014816 0
0.00783183 0.0137734 0
0.00781705 0.014799 0
0.00692079 0.0137806 0
0.00689795 0.0148059 0
0.00873502 0.0137704 0
0.00872859 0.0147955 0
0.00783183 0.0137734 0
0.00781705 0.014799 0
0.00963423 0.0137715 0
0.00963628 0.0147954 0
0.00873502 0.0137704 0
0.00872859 0.0147955 0
0.0105333 0.0137765 0
0.0105439 0.0147986 0
0.00963423 0.0137715 0
0.00963628 0.0147954 0
0.011436 0.0137852 0
0.0114554 0.0148052 0
0.0105333 0.0137765 0
0.0105439 0.0147986 0
0.0123463 0.0137976 0
0.0123746 0.014815 0
0.011436 0.0137852 0
0.0114554 0.0148052 0
0.013268 0.0138138 0
0.0133055 0.0148281 0
0.0123463 0.0137976 0
0.0123746 0.014815 0
0.0142054 0.013834 0
0.0142525 0.0148448 0
0.013268 0.0138138 0
0.0133055 0.0148281 0
0.0151627 0.0138585 0
0.0152198 0.0148652 0
0.0142054 0.013834 0
0.0142525 0.0148448 0
0.0161447 0.0138877 0
0.0162123 0.0148895 0
0.0151627 0.0138585 0
0.0152198 0.0148652 0
0.00318676 0.0128384 0
0.00312898 0.0138479 0
0.00219496 0.0128663 0
0.00213157 0.013872 0
0.00415643 0.0128132 0
0.00410482 0.0138263 0
0.00318676 0.0128384 0
0.00312898 0.0138479 0
0.0051048 0.0127915 0
0.00506049 0.0138075 0
0.00415643 0.0128132 0
0.00410482 0.0138263 0
0.006034 0.0127743 0
0.00599817 0.0137921 0
0.0051048 0.0127915 0
0.00506049 0.0138075 0
0.00694726 0.0127622 0
0.00692079 0.0137806 0
0.006034 0.0127743 0
0.00599817 0.0137921 0
0.00784845 0.0127555 0
0.00783183 0.0137734 0
0.00694726 0.0127622 0
0.00692079 0.0137806 0
0.00874164 0.0127539 0
0.00873502 0.0137704 0
0.00784845 0.0127555 0
0.00783183 0.0137734 0
0.00963083 0.0127571 0
0.00963423 0.0137715 0
0.00874164 0.0127539 0
0.00873502 0.0137704 0
0.0105199 0.0127646 0
0.0105333 0.0137765 0
0.00963083 0.0127571 0
0.00963423 0.0137715 0
0.0114126 0.0127762 0
0.011436 0.0137852 0
0.0105199 0.0127646 0
0.0105333 0.0137765 0
0.0123126 0.0127917 0
0.0123463 0.0137976 0
0.0114126 0.0127762 0
0.011436 0.0137852 0
0.0132237 0.0128112 0
0.013268 0.0138138 0
0.0123126 0.0127917 0
0.0123463 0.0137976 0
0.0141498 0.012835 0
0.0142054 0.013834 0
0.0132237 0.0128112 0
0.013268 0.0138138 0
0.0150953 0.0128636 0
0.0151627 0.0138585 0
0.0141498 0.012835 0
0.0142054 0.013834 0
0.0160649 0.0128976 0
0.0161447 0.0138877 0
0.0150953 0.0128636 0
0.0151627 0.0138585 0
0.00325368 0.0118345 0
0.00318676 0.0128384 0
0.00226738 0.0118663 0
0.00219496 0.0128663 0
0.00421655 0.0118057 0
0.00415643 0.0128132 0
0.00325368 0.0118345 0
0.00318676 0.0128384 0
0.00515618 0.0117815 0
0.0051048 0.0127915 0
0.00421655 0.0118057 0
0.00415643 0.0128132 0
0.00607495 0.0117632 0
0.006034 0.0127743 0
0.00515618 0.0117815 0
0.0051048 0.0127915 0
0.00697676 0.0117516 0
0.00694726 0.0127622 0
0.00607495 0.0117632 0
0.006034 0.0127743 0
0.00786615 0.0117467 0
0.00784845 0.0127555 0
0.00697676 0.0117516 0
0.00694726 0.0127622 0
0.00874763 0.0117478 0
0.00874164 0.0127539 0
0.00786615 0.0117467 0
0.00784845 0.0127555 0
0.00962539 0.0117543 0
0.00963083 0.0127571 0
0.00874763 0.0117478 0
0.00874164 0.0127539 0
0.0105033 0.0117654 0
0.0105199 0.0127646 0
0.00962539 0.0117543 0
0.00963083 0.0127571 0
0.0113848 0.0117805 0
0.0114126 0.0127762 0
0.0105033 0.0117654 0
0.0105199 0.0127646 0
0.0122734 0.0117995 0
0.0123126 0.0127917 0
0.0113848 0.0117805 0
0.0114126 0.0127762 0
0.0131726 0.0118225 0
0.0132237 0.0128112 0
0.0122734 0.0117995 0
0.0123126 0.0127917 0
0.0140861 0.01185 0
0.0141498 0.012835 0
0.0131726 0.0118225 0
0.0132237 0.0128112 0
0.0150179 0.0118826 0
0.0150953 0.0128636 0
0.0140861 0.01185 0
0.0141498 0.012835 0
0.0159729 0.0119213 0
0.0160649 0.0128976 0
0.0150179 0.0118826 0
0.0150953 0.0128636 0
0.00333029 0.0108353 0
0.00325368 0.0118345 0
0.00234876 0.0108711 0
0.00226738 0.0118663 0
0.00428568 0.0108029 0
0.00421655 0.0118057 0
0.00333029 0.0108353 0
0.00325368 0.0118345 0
0.00521461 0.0107767 0
0.00515618 0.0117815 0
0.00428568 0.0108029 0
0.00421655 0.0118057 0
0.00612036 0.0107587 0
0.00607495 0.0117632 0
0.00521461 0.0107767 0
0.00515618 0.0117815 0
0.00700819 0.0107495 0
0.00697676 0.0117516 0
0.00612036 0.0107587 0
0.00607495 0.0117632 0
0.00788367 0.0107484 0
0.00786615 0.0117467 0
0.00700819 0.0107495 0
0.00697676 0.0117516 0
0.00875184 0.0107542 0
0.00874763 0.0117478 0
0.00788367 0.0107484 0
0.00786615 0.0117467 0
0.00961696 0.0107654 0
0.00962539 0.0117543 0
0.00875184 0.0107542 0
0.00874763 0.0117478 0
0.0104827 0.0107812 0
0.0105033 0.0117654 0
0.00961696 0.0107654 0
0.00962539 0.0117543 0
0.0113522 0.0108006 0
0.0113848 0.0117805 0
0.0104827 0.0107812 0
0.0105033 0.0117654 0
0.0122286 0.0108237 0
0.0122734 0.0117995 0
0.0113522 0.0108006 0
0.0113848 0.0117805 0
0.0131149 0.0108505 0
0.0131726 0.0118225 0
0.0122286 0.0108237 0
0.0122734 0.0117995 0
0.0140144 0.0108817 0
0.0140861 0.01185 0
0.0131149 0.0108505 0
0.0131726 0.0118225 0
0.0149311 0.0109182 0
0.0150179 0.0118826 0
0.0140144 0.0108817 0
0.0140861 0.01185 0
0.0158692 0.0109614 0
0.0159729 0.0119213 0
0.0149311 0.0109182 0
0.0150179 0.0118826 0
0.00341771 0.00983892 0
0.00333029 0.0108353 0
0.00243934 0.00987908 0
0.00234876 0.0108711 0
0.00436454 0.00980302 0
0.00428568 0.0108029 0
0.00341771 0.00983892 0
0.00333029 0.0108353 0
0.00527969 0.00977612 0
0.00521461 0.0107767 0
0.00436454 0.00980302 0
0.00428568 0.0108029 0
0.00616885 0.00976088 0
0.00612036 0.0107587 0
0.00527969 0.00977612 0
0.00521461 0.0107767 0
0.0070397 0.00975703 0
0.00700819 0.0107495 0
0.00616885 0.00976088 0
0.00612036 0.0107587 0
0.00789917 0.00976265 0
0.00788367 0.0107484 0
0.0070397 0.00975703 0
0.00700819 0.0107495 0
0.0087527 0.00977539 0
0.00875184 0.0107542 0
0.00789917 0.00976265 0
0.00788367 0.0107484 0
0.00960437 0.00979328 0
0.00961696 0.0107654 0
0.0087527 0.00977539 0
0.00875184 0.0107542 0
0.0104574 0.00981493 0
0.0104827 0.0107812 0
0.00960437 0.00979328 0
0.00961696 0.0107654 0
0.0113144 0.00983961 0
0.0113522 0.0108006 0
0.0104574 0.00981493 0
0.0104827 0.0107812 0
0.012178 0.00986714 0
0.0122286 0.0108237 0
0.0113144 0.00983961 0
0.0113522 0.0108006 0
0.0130507 0.0098979 0
0.0131149 0.0108505 0
0.012178 0.00986714 0
0.0122286 0.0108237 0
0.0139353 0.00993275 0
0.0140144 0.0108817 0
0.0130507 0.0098979 0
0.0131149 0.0108505 0
0.0148352 0.00997298 0
0.0149311 0.0109182 0
0.0139353 0.00993275 0
0.0140144 0.0108817 0
0.0157546 0.0100203 0
0.0158692 0.0109614 0
0.0148352 0.00997298 0
0.0149311 0.0109182 0
0.00351812 0.00884126 0
0.00341771 0.00983892 0
0.00253999 0.00888631 0
0.00243934 0.00987908 0
0.0044539 0.0088023 0
0.00436454 0.00980302 0
0.00351812 0.00884126 0
0.00341771 0.00983892 0
0.00534994 0.00877797 0
0.00527969 0.00977612 0
0.0044539 0.0088023 0
0.00436454 0.00980302 0
0.00621763 0.00877018 0
0.00616885 0.00976088 0
0.00534994 0.00877797 0
0.00527969 0.00977612 0
0.00706829 0.00877645 0
0.0070397 0.00975703 0
0.00621763 0.00877018 0
0.00616885 0.00976088 0
0.00791014 0.00879253 0
0.00789917 0.00976265 0
0.00706829 0.00877645 0
0.0070397 0.00975703 0
0.00874833 0.00881495 0
0.0087527 0.00977539 0
0.00791014 0.00879253 0
0.00789917 0.00976265 0
0.00958634 0.00884126 0
0.00960437 0.00979328 0
0.00874833 0.00881495 0
0.0087527 0.00977539 0
0.0104266 0.00887 0
0.0104574 0.00981493 0
0.00958634 0.00884126 0
0.00960437 0.00979328 0
0.0112712 0.00890052 0
0.0113144 0.00983961 0
0.0104266 0.00887 0
0.0104574 0.00981493 0
0.0121219 0.00893283 0
0.012178 0.00986714 0
0.0112712 0.00890052 0
0.0113144 0.00983961 0
0.0129805 0.00896757 0
0.0130507 0.0098979 0
0.0121219 0.00893283 0
0.012178 0.00986714 0
0.0138495 0.00900588 0
0.0139353 0.00993275 0
0.0129805 0.00896757 0
0.0130507 0.0098979 0
0.0147314 0.00904946 0
0.0148352 0.00997298 0
0.0138495 0.00900588 0
0.0139353 0.00993275 0
0.0156298 0.00910051 0
0.0157546 0.0100203 0
0.0147314 0.00904946 0
0.0148352 0.00997298 0
0.00363565 0.00783404 0
0.00351812 0.00884126 0
0.00265362 0.00788617 0
0.00253999 0.00888631 0
0.00455337 0.00779541 0
0.0044539 0.0088023 0
0.00363565 0.00783404 0
0.00351812 0.00884126 0
0.00542118 0.0077807 0
0.00534994 0.00877797 0
0.00455337 0.00779541 0
0.0044539 0.0088023 0
0.00626143 0.00778924 0
0.00621763 0.00877018 0
0.00542118 0.0077807 0
0.00534994 0.00877797 0
0.0070898 0.00781204 0
0.00706829 0.00877645 0
0.00626143 0.00778924 0
0.00621763 0.00877018 0
0.00791359 0.00784276 0
0.00791014 0.00879253 0
0.0070898 0.00781204 0
0.00706829 0.00877645 0
0.0087368 0.00787735 0
0.00874833 0.00881495 0
0.00791359 0.00784276 0
0.00791014 0.00879253 0
0.00956174 0.0079135 0
0.00958634 0.00884126 0
0.0087368 0.00787735 0
0.00874833 0.00881495 0
0.0103899 0.00795004 0
0.0104266 0.00887 0
0.00956174 0.0079135 0
0.00958634 0.00884126 0
0.0112224 0.00798669 0
0.0112712 0.00890052 0
0.0103899 0.00795004 0
0.0104266 0.00887 0
0.0120604 0.0080238 0
0.0121219 0.00893283 0
0.0112224 0.00798669 0
0.0112712 0.00890052 0
0.012905 0.00806231 0
0.0129805 0.00896757 0
0.0120604 0.0080238 0
0.0121219 0.00893283 0
0.0137577 0.00810374 0
0.0138495 0.00900588 0
0.012905 0.00806231 0
0.0129805 0.00896757 0
0.0146206 0.00815016 0
0.0147314 0.00904946 0
0.0137577 0.00810374 0
0.0138495 0.00900588 0
0.0154965 0.00820429 0
0.0156298 0.00910051 0
0.0146206 0.00815016 0
0.0147314 0.00904946 0
0.00377674 0.00680455 0
0.00363565 0.00783404 0
0.00278715 0.00685956 0
0.00265362 0.00788617 0
0.00465778 0.00677322 0
0.00455337 0.00779541 0
0.00377674 0.00680455 0
0.00363565 0.00783404 0
0.00548245 0.00678896 0
0.00542118 0.0077807 0
0.00465778 0.00677322 0
0.00455337 0.00779541 0
0.00629301 0.00682587 0
0.00626143 0.00778924 0
0.00548245 0.00678896 0
0.00542118 0.0077807 0
0.00709956 0.00687163 0
0.0070898 0.00781204 0
0.00629301 0.00682587 0
0.00626143 0.00778924 0
0.00790682 0.00692008 0
0.00791359 0.00784276 0
0.00709956 0.00687163 0
0.0070898 0.00781204 0
0.00871665 0.00696819 0
0.0087368 0.00787735 0
0.00790682 0.00692008 0
0.00791359 0.00784276 0
0.00952991 0.00701461 0
0.00956174 0.0079135 0
0.00871665 0.00696819 0
0.0087368 0.00787735 0
0.0103471 0.00705893 0
0.0103899 0.00795004 0
0.00952991 0.00701461 0
0.00956174 0.0079135 0
0.0111684 0.00710143 0
0.0112224 0.00798669 0
0.0103471 0.00705893 0
0.0103899 0.00795004 0
0.0119942 0.00714293 0
0.0120604 0.0080238 0
0.0111684 0.00710143 0
0.0112224 0.00798669 0
0.0128249 0.00718474 0
0.012905 0.00806231 0
0.0119942 0.00714293 0
0.0120604 0.0080238 0
0.0136613 0.00722871 0
0.0137577 0.00810374 0
0.0128249 0.00718474 0
0.012905 0.00806231 0
0.0145045 0.00727732 0
0.0146206 0.00815016 0
0.0136613 0.00722871 0
0.0137577 0.00810374 0
0.0153563 0.00733374 0
0.0154965 0.00820429 0
0.0145045 0.00727732 0
0.0146206 0.00815016 0
0.00394602 0.00570654 0
0.00377674 0.00680455 0
0.0029783 0.0057955 0
0.00278715 0.00685956 0
0.00473579 0.00575081 0
0.00465778 0.00677322 0
0.00394602 0.00570654 0
0.00377674 0.00680455 0
0.00552072 0.00582165 0
0.00548245 0.00678896 0
0.00473579 0.00575081 0
0.00465778 0.00677322 0
0.00630529 0.00589566 0
0.00629301 0.00682587 0
0.00552072 0.00582165 0
0.00548245 0.00678896 0
0.0070944 0.0059667 0
0.00709956 0.00687163 0
0.00630529 0.00589566 0
0.00629301 0.00682587 0
0.00788848 0.00603286 0
0.00790682 0.00692008 0
0.0070944 0.0059667 0
0.00709956 0.00687163 0
0.00868748 0.00609366 0
0.00871665 0.00696819 0
0.00788848 0.00603286 0
0.00790682 0.00692008 0
0.00949101 0.00614928 0
0.00952991 0.00701461 0
0.00868748 0.00609366 0
0.00871665 0.00696819 0
0.0102986 0.00620032 0
0.0103471 0.00705893 0
0.00949101 0.00614928 0
0.00952991 0.00701461 0
0.0111098 0.0062477 0
0.0111684 0.00710143 0
0.0102986 0.00620032 0
0.0103471 0.00705893 0
0.0119242 0.00629271 0
0.0119942 0.00714293 0
0.0111098 0.0062477 0
0.0111684 0.00710143 0
0.0127414 0.00633701 0
0.0128249 0.00718474 0
0.0119242 0.00629271 0
0.0119942 0.00714293 0
0.0135615 0.00638277 0
0.0136613 0.00722871 0
0.0127414 0.00633701 0
0.0128249 0.00718474 0
0.0143847 0.00643275 0
0.0145045 0.00727732 0
0.0135615 0.00638277 0
0.0136613 0.00722871 0
0.0152115 0.00649051 0
0.0153563 0.00733374 0
0.0143847 0.00643275 0
0.0145045 0.00727732 0
0.00401795 0.00462845 0
0.00394602 0.00570654 0
0.00332987 0.00442011 0
0.0029783 0.0057955 0
0.00477011 0.00478993 0
0.00473579 0.00575081 0
0.00401795 0.00462845 0
0.00394602 0.00570654 0
0.00552796 0.00491452 0
0.00552072 0.00582165 0
0.00477011 0.00478993 0
0.00473579 0.00575081 0
0.00629711 0.00501942 0
0.00630529 0.00589566 0
0.00552796 0.00491452 0
0.00552072 0.00582165 0
0.00707469 0.00511008 0
0.0070944 0.0059667 0
0.00629711 0.00501942 0
0.00630529 0.00589566 0
0.00785958 0.00518944 0
0.00788848 0.00603286 0
0.00707469 0.00511008 0
0.0070944 0.0059667 0
0.00865048 0.00525942 0
0.00868748 0.00609366 0
0.00785958 0.00518944 0
0.00788848 0.00603286 0
0.00944623 0.00532154 0
0.00949101 0.00614928 0
0.00865048 0.00525942 0
0.00868748 0.00609366 0
0.0102457 0.00537717 0
0.0102986 0.00620032 0
0.00944623 0.00532154 0
0.00949101 0.00614928 0
0.0110479 0.00542777 0
0.0111098 0.0062477 0
0.0102457 0.00537717 0
0.0102986 0.00620032 0
0.0118517 0.00547496 0
0.0119242 0.00629271 0
0.0110479 0.00542777 0
0.0111098 0.0062477 0
0.0126561 0.00552067 0
0.0127414 0.00633701 0