# vtk DataFile Version 3.0
#This file was generated by the deal.II library on 2021/1/5 at 13:55:19
ASCII
DATASET UNSTRUCTURED_GRID

POINTS 2700 double
0.0322581 0.516129 0
0 0.516129 0
0.0322581 0.483871 0
0 0.483871 0
0.0322581 0.548387 0
0 0.548387 0
0.0322581 0.516129 0
0 0.516129 0
0.0322581 0.580645 0
0 0.580645 0
0.0322581 0.548387 0
0 0.548387 0
0.0322581 0.612903 0
0 0.612903 0
0.0322581 0.580645 0
0 0.580645 0
0.0322581 0.645161 0
0 0.645161 0
0.0322581 0.612903 0
0 0.612903 0
0.0322581 0.677419 0
0 0.677419 0
0.0322581 0.645161 0
0 0.645161 0
0.0322581 0.709677 0
0 0.709677 0
0.0322581 0.677419 0
0 0.677419 0
0.0322581 0.741935 0
0 0.741935 0
0.0322581 0.709677 0
0 0.709677 0
0.0322581 0.774193 0
0 0.774193 0
0.0322581 0.741935 0
0 0.741935 0
0.0322581 0.806452 0
0 0.806452 0
0.0322581 0.774193 0
0 0.774193 0
0.0322581 0.83871 0
0 0.83871 0
0.0322581 0.806452 0
0 0.806452 0
0.0322581 0.870968 0
0 0.870968 0
0.0322581 0.83871 0
0 0.83871 0
0.0322581 0.903226 0
0 0.903226 0
0.0322581 0.870968 0
0 0.870968 0
0.0322581 0.935484 0
0 0.935484 0
0.0322581 0.903226 0
0 0.903226 0
0.0322581 0.967742 0
0 0.967742 0
0.0322581 0.935484 0
0 0.935484 0
0.0645161 0.516129 0
0.0322581 0.516129 0
0.0645161 0.483871 0
0.0322581 0.483871 0
0.0645161 0.548387 0
0.0322581 0.548387 0
0.0645161 0.516129 0
0.0322581 0.516129 0
0.0645161 0.580645 0
0.0322581 0.580645 0
0.0645161 0.548387 0
0.0322581 0.548387 0
0.0645161 0.612903 0
0.0322581 0.612903 0
0.0645161 0.580645 0
0.0322581 0.580645 0
0.0645161 0.645161 0
0.0322581 0.645161 0
0.0645161 0.612903 0
0.0322581 0.612903 0
0.0645161 0.677419 0
0.0322581 0.677419 0
0.0645161 0.645161 0
0.0322581 0.645161 0
0.0645161 0.709677 0
0.0322581 0.709677 0
0.0645161 0.677419 0
0.0322581 0.677419 0
0.0645161 0.741935 0
0.0322581 0.741935 0
0.0645161 0.709677 0
0.0322581 0.709677 0
0.0645161 0.774193 0
0.0322581 0.774193 0
0.0645161 0.741935 0
0.0322581 0.741935 0
0.0645161 0.806452 0
0.0322581 0.806452 0
0.0645161 0.774193 0
0.0322581 0.774193 0
0.0645161 0.83871 0
0.0322581 0.83871 0
0.0645161 0.806452 0
0.0322581 0.806452 0
0.0645161 0.870968 0
0.0322581 0.870968 0
0.0645161 0.83871 0
0.0322581 0.83871 0
0.0645161 0.903226 0
0.0322581 0.903226 0
0.0645161 0.870968 0
0.0322581 0.870968 0
0.0645161 0.935484 0
0.0322581 0.935484 0
0.0645161 0.903226 0
0.0322581 0.903226 0
0.0645161 0.967742 0
0.0322581 0.967742 0
0.0645161 0.935484 0
0.0322581 0.935484 0
0.0967742 0.516129 0
0.0645161 0.516129 0
0.0967742 0.483871 0
0.0645161 0.483871 0
0.0967742 0.548387 0
0.0645161 0.548387 0
0.0967742 0.516129 0
0.0645161 0.516129 0
0.0967742 0.580645 0
0.0645161 0.580645 0
0.0967742 0.548387 0
0.0645161 0.548387 0
0.0967742 0.612903 0
0.0645161 0.612903 0
0.0967742 0.580645 0
0.0645161 0.580645 0
0.0967742 0.645161 0
0.0645161 0.645161 0
0.0967742 0.612903 0
0.0645161 0.612903 0
0.0967742 0.677419 0
0.0645161 0.677419 0
0.0967742 0.645161 0
0.0645161 0.645161 0
0.0967742 0.709677 0
0.0645161 0.709677 0
0.0967742 0.677419 0
0.0645161 0.677419 0
0.0967742 0.741935 0
0.0645161 0.741935 0
0.0967742 0.709677 0
0.0645161 0.709677 0
0.0967742 0.774193 0
0.0645161 0.774193 0
0.0967742 0.741935 0
0.0645161 0.741935 0
0.0967742 0.806452 0
0.0645161 0.806452 0
0.0967742 0.774193 0
0.0645161 0.774193 0
0.0967742 0.83871 0
0.0645161 0.83871 0
0.0967742 0.806452 0
0.0645161 0.806452 0
0.0967742 0.870968 0
0.0645161 0.870968 0
0.0967742 0.83871 0
0.0645161 0.83871 0
0.0967742 0.903226 0
0.0645161 0.903226 0
0.0967742 0.870968 0
0.0645161 0.870968 0
0.0967742 0.935484 0
0.0645161 0.935484 0
0.0967742 0.903226 0
0.0645161 0.903226 0
0.0967742 0.967742 0
0.0645161 0.967742 0
0.0967742 0.935484 0
0.0645161 0.935484 0
0.129032 0.516129 0
0.0967742 0.516129 0
0.129032 0.483871 0
0.0967742 0.483871 0
0.129032 0.548387 0
0.0967742 0.548387 0
0.129032 0.516129 0
0.0967742 0.516129 0
0.129032 0.580645 0
0.0967742 0.580645 0
0.129032 0.548387 0
0.0967742 0.548387 0
0.129032 0.612903 0
0.0967742 0.612903 0
0.129032 0.580645 0
0.0967742 0.580645 0
0.129032 0.645161 0
0.0967742 0.645161 0
0.129032 0.612903 0
0.0967742 0.612903 0
0.129032 0.677419 0
0.0967742 0.677419 0
0.129032 0.645161 0
0.0967742 0.645161 0
0.129032 0.709677 0
0.0967742 0.709677 0
0.129032 0.677419 0
0.0967742 0.677419 0
0.129032 0.741935 0
0.0967742 0.741935 0
0.129032 0.709677 0
0.0967742 0.709677 0
0.129032 0.774193 0
0.0967742 0.774193 0
0.129032 0.741935 0
0.0967742 0.741935 0
0.129032 0.806452 0
0.0967742 0.806452 0
0.129032 0.774193 0
0.0967742 0.774193 0
0.129032 0.83871 0
0.0967742 0.83871 0
0.129032 0.806452 0
0.0967742 0.806452 0
0.129032 0.870968 0
0.0967742 0.870968 0
0.129032 0.83871 0
0.0967742 0.83871 0
0.129032 0.903226 0
0.0967742 0.903226 0
0.129032 0.870968 0
0.0967742 0.870968 0
0.129032 0.935484 0
0.0967742 0.935484 0
0.129032 0.903226 0
0.0967742 0.903226 0
0.129032 0.967742 0
0.0967742 0.967742 0
0.129032 0.935484 0
0.0967742 0.935484 0
0.16129 0.516129 0
0.129032 0.516129 0
0.16129 0.483871 0
0.129032 0.483871 0
0.16129 0.548387 0
0.129032 0.548387 0
0.16129 0.516129 0
0.129032 0.516129 0
0.16129 0.580645 0
0.129032 0.580645 0
0.16129 0.548387 0
0.129032 0.548387 0
0.16129 0.612903 0
0.129032 0.612903 0
0.16129 0.580645 0
0.129032 0.580645 0
0.16129 0.645161 0
0.129032 0.645161 0
0.16129 0.612903 0
0.129032 0.612903 0
0.16129 0.677419 0
0.129032 0.677419 0
0.16129 0.645161 0
0.129032 0.645161 0
0.16129 0.709677 0
0.129032 0.709677 0
0.16129 0.677419 0
0.129032 0.677419 0
0.16129 0.741935 0
0.129032 0.741935 0
0.16129 0.709677 0
0.129032 0.709677 0
0.16129 0.774193 0
0.129032 0.774193 0
0.16129 0.741935 0
0.129032 0.741935 0
0.16129 0.806452 0
0.129032 0.806452 0
0.16129 0.774193 0
0.129032 0.774193 0
0.16129 0.83871 0
0.129032 0.83871 0
0.16129 0.806452 0
0.129032 0.806452 0
0.16129 0.870968 0
0.129032 0.870968 0
0.16129 0.83871 0
0.129032 0.83871 0
0.16129 0.903226 0
0.129032 0.903226 0
0.16129 0.870968 0
0.129032 0.870968 0
0.16129 0.935484 0
0.129032 0.935484 0
0.16129 0.903226 0
0.129032 0.903226 0
0.16129 0.967742 0
0.129032 0.967742 0
0.16129 0.935484 0
0.129032 0.935484 0
0.193548 0.516129 0
0.16129 0.516129 0
0.193548 0.483871 0
0.16129 0.483871 0
0.193548 0.548387 0
0.16129 0.548387 0
0.193548 0.516129 0
0.16129 0.516129 0
0.193548 0.580645 0
0.16129 0.580645 0
0.193548 0.548387 0
0.16129 0.548387 0
0.193548 0.612903 0
0.16129 0.612903 0
0.193548 0.580645 0
0.16129 0.580645 0
0.193548 0.645161 0
0.16129 0.645161 0
0.193548 0.612903 0
0.16129 0.612903 0
0.193548 0.677419 0
0.16129 0.677419 0
0.193548 0.645161 0
0.16129 0.645161 0
0.193548 0.709677 0
0.16129 0.709677 0
0.193548 0.677419 0
0.16129 0.677419 0
0.193548 0.741935 0
0.16129 0.741935 0
0.193548 0.709677 0
0.16129 0.709677 0
0.193548 0.774193 0
0.16129 0.774193 0
0.193548 0.741935 0
0.16129 0.741935 0
0.193548 0.806452 0
0.16129 0.806452 0
0.193548 0.774193 0
0.16129 0.774193 0
0.193548 0.83871 0
0.16129 0.83871 0
0.193548 0.806452 0
0.16129 0.806452 0
0.193548 0.870968 0
0.16129 0.870968 0
0.193548 0.83871 0
0.16129 0.83871 0
0.193548 0.903226 0
0.16129 0.903226 0
0.193548 0.870968 0
0.16129 0.870968 0
0.193548 0.935484 0
0.16129 0.935484 0
0.193548 0.903226 0
0.16129 0.903226 0
0.193548 0.967742 0
0.16129 0.967742 0
0.193548 0.935484 0
0.16129 0.935484 0
0.225806 0.516129 0
0.193548 0.516129 0
0.225806 0.483871 0
0.193548 0.483871 0
0.225806 0.548387 0
0.193548 0.548387 0
0.225806 0.516129 0
0.193548 0.516129 0
0.225806 0.580645 0
0.193548 0.580645 0
0.225806 0.548387 0
0.193548 0.548387 0
0.225806 0.612903 0
0.193548 0.612903 0
0.225806 0.580645 0
0.193548 0.580645 0
0.225806 0.645161 0
0.193548 0.645161 0
0.225806 0.612903 0
0.193548 0.612903 0
0.225806 0.677419 0
0.193548 0.677419 0
0.225806 0.645161 0
0.193548 0.645161 0
0.225806 0.709677 0
0.193548 0.709677 0
0.225806 0.677419 0
0.193548 0.677419 0
0.225806 0.741935 0
0.193548 0.741935 0
0.225806 0.709677 0
0.193548 0.709677 0
0.225806 0.774193 0
0.193548 0.774193 0
0.225806 0.741935 0
0.193548 0.741935 0
0.225806 0.806452 0
0.193548 0.806452 0
0.225806 0.774193 0
0.193548 0.774193 0
0.225806 0.83871 0
0.193548 0.83871 0
0.225806 0.806452 0
0.193548 0.806452 0
0.225806 0.870968 0
0.193548 0.870968 0
0.225806 0.83871 0
0.193548 0.83871 0
0.225806 0.903226 0
0.193548 0.903226 0
0.225806 0.870968 0
0.193548 0.870968 0
0.225806 0.935484 0
0.193548 0.935484 0
0.225806 0.903226 0
0.193548 0.903226 0
0.225806 0.967742 0
0.193548 0.967742 0
0.225806 0.935484 0
0.193548 0.935484 0
0.258064 0.516129 0
0.225806 0.516129 0
0.258064 0.483871 0
0.225806 0.483871 0
0.258064 0.548387 0
0.225806 0.548387 0
0.258064 0.516129 0
0.225806 0.516129 0
0.258064 0.580645 0
0.225806 0.580645 0
0.258064 0.548387 0
0.225806 0.548387 0
0.258064 0.612903 0
0.225806 0.612903 0
0.258064 0.580645 0
0.225806 0.580645 0
0.258064 0.645161 0
0.225806 0.645161 0
0.258064 0.612903 0
0.225806 0.612903 0
0.258064 0.677419 0
0.225806 0.677419 0
0.258064 0.645161 0
0.225806 0.645161 0
0.258064 0.709677 0
0.225806 0.709677 0
0.258064 0.677419 0
0.225806 0.677419 0
0.258064 0.741935 0
0.225806 0.741935 0
0.258064 0.709677 0
0.225806 0.709677 0
0.258064 0.774193 0
0.225806 0.774193 0
0.258064 0.741935 0
0.225806 0.741935 0
0.258064 0.806452 0
0.225806 0.806452 0
0.258064 0.774193 0
0.225806 0.774193 0
0.258064 0.83871 0
0.225806 0.83871 0
0.258064 0.806452 0
0.225806 0.806452 0
0.258064 0.870968 0
0.225806 0.870968 0
0.258064 0.83871 0
0.225806 0.83871 0
0.258064 0.903226 0
0.225806 0.903226 0
0.258064 0.870968 0
0.225806 0.870968 0
0.258064 0.935484 0
0.225806 0.935484 0
0.258064 0.903226 0
0.225806 0.903226 0
0.258064 0.967742 0
0.225806 0.967742 0
0.258064 0.935484 0
0.225806 0.935484 0
0.290323 0.516129 0
0.258064 0.516129 0
0.290323 0.483871 0
0.258064 0.483871 0
0.290323 0.548387 0
0.258064 0.548387 0
0.290323 0.516129 0
0.258064 0.516129 0
0.290323 0.580645 0
0.258064 0.580645 0
0.290323 0.548387 0
0.258064 0.548387 0
0.290323 0.612903 0
0.258064 0.612903 0
0.290323 0.580645 0
0.258064 0.580645 0
0.290323 0.645161 0
0.258064 0.645161 0
[...]
POINT_DATA 2700
VECTORS u double
0.00891917 0.0569035 0
0.00890574 0.06 0
0.00587192 0.0569158 0
0.00585672 0.06 0
0.0119014 0.0568926 0
0.0118896 0.06 0
0.00891917 0.0569035 0
0.00890574 0.06 0
0.0148268 0.056883 0
0.0148168 0.06 0
0.0119014 0.0568926 0
0.0118896 0.06 0
0.0177041 0.0568748 0
0.0176958 0.06 0
0.0148268 0.056883 0
0.0148168 0.06 0
0.020542 0.0568681 0
0.0205357 0.06 0
0.0177041 0.0568748 0
0.0176958 0.06 0
0.02335 0.0568632 0
0.0233457 0.06 0
0.020542 0.0568681 0
0.0205357 0.06 0
0.0261379 0.0568601 0
0.0261358 0.06 0
0.02335 0.0568632 0
0.0233457 0.06 0
0.0289163 0.056859 0
0.0289165 0.06 0
0.0261379 0.0568601 0
0.0261358 0.06 0
0.0316962 0.0568599 0
0.0316987 0.06 0
0.0289163 0.056859 0
0.0289165 0.06 0
0.034489 0.056863 0
0.0344941 0.06 0
0.0316962 0.0568599 0
0.0316987 0.06 0
0.0373068 0.0568682 0
0.0373143 0.06 0
0.034489 0.056863 0
0.0344941 0.06 0
0.0401617 0.0568757 0
0.0401719 0.06 0
0.0373068 0.0568682 0
0.0373143 0.06 0
0.0430665 0.0568855 0
0.0430794 0.06 0
0.0401617 0.0568757 0
0.0401719 0.06 0
0.046034 0.0568976 0
0.0460496 0.06 0
0.0430665 0.0568855 0
0.0430794 0.06 0
0.0490774 0.0569121 0
0.0490957 0.06 0
0.046034 0.0568976 0
0.0460496 0.06 0
0.00895946 0.0538107 0
0.00891917 0.0569035 0
0.00591741 0.0538353 0
0.00587192 0.0569158 0
0.0119367 0.0537889 0
0.0119014 0.0568926 0
0.00895946 0.0538107 0
0.00891917 0.0569035 0
0.0148571 0.0537697 0
0.0148268 0.056883 0
0.0119367 0.0537889 0
0.0119014 0.0568926 0
0.0177289 0.0537534 0
0.0177041 0.0568748 0
0.0148571 0.0537697 0
0.0148268 0.056883 0
0.0205611 0.0537402 0
0.020542 0.0568681 0
0.0177289 0.0537534 0
0.0177041 0.0568748 0
0.0233629 0.0537305 0
0.02335 0.0568632 0
0.0205611 0.0537402 0
0.020542 0.0568681 0
0.0261442 0.0537245 0
0.0261379 0.0568601 0
0.0233629 0.0537305 0
0.02335 0.0568632 0
0.0289157 0.0537225 0
0.0289163 0.056859 0
0.0261442 0.0537245 0
0.0261379 0.0568601 0
0.0316885 0.0537246 0
0.0316962 0.0568599 0
0.0289157 0.0537225 0
0.0289163 0.056859 0
0.0344739 0.0537309 0
0.034489 0.056863 0
0.0316885 0.0537246 0
0.0316962 0.0568599 0
0.037284 0.0537415 0
0.0373068 0.0568682 0
0.0344739 0.0537309 0
0.034489 0.056863 0
0.0401311 0.0537565 0
0.0401617 0.0568757 0
0.037284 0.0537415 0
0.0373068 0.0568682 0
0.0430278 0.0537762 0
0.0430665 0.0568855 0
0.0401311 0.0537565 0
0.0401617 0.0568757 0
0.0459872 0.0538005 0
0.046034 0.0568976 0
0.0430278 0.0537762 0
0.0430665 0.0568855 0
0.0490225 0.0538295 0
0.0490774 0.0569121 0
0.0459872 0.0538005 0
0.046034 0.0568976 0
0.00902649 0.0507253 0
0.00895946 0.0538107 0
0.00599294 0.050762 0
0.00591741 0.0538353 0
0.0119955 0.0506926 0
0.0119367 0.0537889 0
0.00902649 0.0507253 0
0.00895946 0.0538107 0
0.0149075 0.0506639 0
0.0148571 0.0537697 0
0.0119955 0.0506926 0
0.0119367 0.0537889 0
0.0177704 0.0506396 0
0.0177289 0.0537534 0
0.0149075 0.0506639 0
0.0148571 0.0537697 0
0.0205928 0.0506201 0
0.0205611 0.0537402 0
0.0177704 0.0506396 0
0.0177289 0.0537534 0
0.0233842 0.0506059 0
0.0233629 0.0537305 0
0.0205928 0.0506201 0
0.0205611 0.0537402 0
0.0261546 0.0505976 0
0.0261442 0.0537245 0
0.0233842 0.0506059 0
0.0233629 0.0537305 0
0.0289146 0.0505951 0
0.0289157 0.0537225 0
0.0261546 0.0505976 0
0.0261442 0.0537245 0
0.0316754 0.0505989 0
0.0316885 0.0537246 0
0.0289146 0.0505951 0
0.0289157 0.0537225 0
0.0344486 0.0506088 0
0.0344739 0.0537309 0
0.0316754 0.0505989 0
0.0316885 0.0537246 0
0.037246 0.0506251 0
0.037284 0.0537415 0
0.0344486 0.0506088 0
0.0344739 0.0537309 0
0.0400801 0.0506479 0
0.0401311 0.0537565 0
0.037246 0.0506251 0
0.037284 0.0537415 0
0.0429634 0.0506775 0
0.0430278 0.0537762 0
0.0400801 0.0506479 0
0.0401311 0.0537565 0
0.0459092 0.050714 0
0.0459872 0.0538005 0
0.0429634 0.0506775 0
0.0430278 0.0537762 0
0.0489309 0.0507576 0
0.0490225 0.0538295 0
0.0459092 0.050714 0
0.0459872 0.0538005 0
0.00912014 0.0476505 0
0.00902649 0.0507253 0
0.00609807 0.0476992 0
0.00599294 0.050762 0
0.012078 0.0476071 0
0.0119955 0.0506926 0
0.00912014 0.0476505 0
0.00902649 0.0507253 0
0.0149783 0.0475689 0
0.0149075 0.0506639 0
0.012078 0.0476071 0
0.0119955 0.0506926 0
0.0178285 0.0475368 0
0.0177704 0.0506396 0
0.0149783 0.0475689 0
0.0149075 0.0506639 0
0.0206372 0.0475114 0
0.0205928 0.0506201 0
0.0178285 0.0475368 0
0.0177704 0.0506396 0
0.0234138 0.0474935 0
0.0233842 0.0506059 0
0.0206372 0.0475114 0
0.0205928 0.0506201 0
0.0261686 0.0474834 0
0.0261546 0.0505976 0
0.0234138 0.0474935 0
0.0233842 0.0506059 0
0.0289125 0.0474815 0
0.0289146 0.0505951 0
0.0261686 0.0474834 0
0.0261546 0.0505976 0
0.0316567 0.0474876 0
0.0316754 0.0505989 0
0.0289125 0.0474815 0
0.0289146 0.0505951 0
0.0344128 0.0475018 0
0.0344486 0.0506088 0
0.0316567 0.0474876 0
0.0316754 0.0505989 0
0.0371927 0.0475243 0
0.037246 0.0506251 0
0.0344128 0.0475018 0
0.0344486 0.0506088 0
0.0400086 0.0475552 0
0.0400801 0.0506479 0
0.0371927 0.0475243 0
0.037246 0.0506251 0
0.0428733 0.0475949 0
0.0429634 0.0506775 0
0.0400086 0.0475552 0
0.0400801 0.0506479 0
0.0458 0.0476437 0
0.0459092 0.050714 0
0.0428733 0.0475949 0
0.0429634 0.0506775 0
0.0488024 0.047702 0
0.0489309 0.0507576 0
0.0458 0.0476437 0
0.0459092 0.050714 0
0.00924029 0.0445893 0
0.00912014 0.0476505 0
0.00623222 0.0446498 0
0.00609807 0.0476992 0
0.0121842 0.0445351 0
0.012078 0.0476071 0
0.00924029 0.0445893 0
0.00912014 0.0476505 0
0.0150695 0.0444877 0
0.0149783 0.0475689 0
0.0121842 0.0445351 0
0.012078 0.0476071 0
0.0179032 0.0444481 0
0.0178285 0.0475368 0
0.0150695 0.0444877 0
0.0149783 0.0475689 0
0.0206938 0.0444176 0
0.0206372 0.0475114 0
0.0179032 0.0444481 0
0.0178285 0.0475368 0
0.0234511 0.044397 0
0.0234138 0.0474935 0
0.0206938 0.0444176 0
0.0206372 0.0475114 0
0.0261858 0.0443865 0
0.0261686 0.0474834 0
0.0234511 0.044397 0
0.0234138 0.0474935 0
0.0289088 0.0443862 0
0.0289125 0.0474815 0
0.0261858 0.0443865 0
0.0261686 0.0474834 0
0.0316318 0.0443959 0
0.0316567 0.0474876 0
0.0289088 0.0443862 0
0.0289125 0.0474815 0
0.0343661 0.0444155 0
0.0344128 0.0475018 0
0.0316318 0.0443959 0
0.0316567 0.0474876 0
0.0371237 0.0444449 0
0.0371927 0.0475243 0
0.0343661 0.0444155 0
0.0344128 0.0475018 0
0.0399166 0.0444844 0
0.0400086 0.0475552 0
0.0371237 0.0444449 0
0.0371927 0.0475243 0
0.0427574 0.0445344 0
0.0428733 0.0475949 0
0.0399166 0.0444844 0
0.0400086 0.0475552 0
0.0456595 0.0445955 0
0.0458 0.0476437 0
0.0427574 0.0445344 0
0.0428733 0.0475949 0
0.0486368 0.0446684 0
0.0488024 0.047702 0
0.0456595 0.0445955 0
0.0458 0.0476437 0
0.00938693 0.0415438 0
0.00924029 0.0445893 0
0.00639472 0.041616 0
0.00623222 0.0446498 0
0.0123145 0.0414789 0
0.0121842 0.0445351 0
0.00938693 0.0415438 0
0.00924029 0.0445893 0
0.0151815 0.0414224 0
0.0150695 0.0444877 0
0.0123145 0.0414789 0
0.0121842 0.0445351 0
0.0179945 0.0413762 0
0.0179032 0.0444481 0
0.0151815 0.0414224 0
0.0150695 0.0444877 0
0.0207624 0.0413418 0
0.0206938 0.0444176 0
0.0179945 0.0413762 0
0.0179032 0.0444481 0
0.0234955 0.0413201 0
0.0234511 0.044397 0
0.0207624 0.0413418 0
0.0206938 0.0444176 0
0.0262051 0.0413111 0
0.0261858 0.0443865 0
0.0234955 0.0413201 0
0.0234511 0.044397 0
0.0289027 0.0413144 0
0.0289088 0.0443862 0
0.0262051 0.0413111 0
0.0261858 0.0443865 0
0.0315999 0.0413294 0
0.0316318 0.0443959 0
0.0289027 0.0413144 0
0.0289088 0.0443862 0
0.0343081 0.0413556 0
0.0343661 0.0444155 0
0.0315999 0.0413294 0
0.0316318 0.0443959 0
0.0370389 0.0413929 0
0.0371237 0.0444449 0
0.0343081 0.0413556 0
0.0343661 0.0444155 0
0.0398041 0.0414415 0
0.0399166 0.0444844 0
0.0370389 0.0413929 0
0.0371237 0.0444449 0
0.0426161 0.0415021 0
0.0427574 0.0445344 0
0.0398041 0.0414415 0
0.0399166 0.0444844 0
0.045488 0.0415756 0
0.0456595 0.0445955 0
0.0426161 0.0415021 0
0.0427574 0.0445344 0
0.0484341 0.0416631 0
0.0486368 0.0446684 0
0.045488 0.0415756 0
0.0456595 0.0445955 0
0.00956028 0.0385153 0
0.00938693 0.0415438 0
0.00658489 0.038599 0
0.00639472 0.041616 0
0.0124693 0.0384397 0
0.0123145 0.0414789 0
0.00956028 0.0385153 0
0.00938693 0.0415438 0
0.0153144 0.0383746 0
0.0151815 0.0414224 0
0.0124693 0.0384397 0
0.0123145 0.0414789 0
0.018102 0.038323 0
0.0179945 0.0413762 0
0.0153144 0.0383746 0
0.0151815 0.0414224 0
0.0208418 0.0382867 0
0.0207624 0.0413418 0
0.018102 0.038323 0
0.0179945 0.0413762 0
0.0235454 0.0382665 0
0.0234955 0.0413201 0
0.0208418 0.0382867 0
0.0207624 0.0413418 0
0.0262249 0.0382617 0
0.0262051 0.0413111 0
0.0235454 0.0382665 0
0.0234955 0.0413201 0
0.0288925 0.0382713 0
0.0289027 0.0413144 0
0.0262249 0.0382617 0
0.0262051 0.0413111 0
0.0315597 0.0382939 0
0.0315999 0.0413294 0
0.0288925 0.0382713 0
0.0289027 0.0413144 0
0.0342379 0.0383286 0
0.0343081 0.0413556 0
0.0315597 0.0382939 0
0.0315999 0.0413294 0
0.0369379 0.038375 0
0.0370389 0.0413929 0
0.0342379 0.0383286 0
0.0343081 0.0413556 0
0.0396711 0.0384335 0
0.0398041 0.0414415 0
0.0369379 0.038375 0
0.0370389 0.0413929 0
0.0424495 0.0385049 0
0.0426161 0.0415021 0
0.0396711 0.0384335 0
0.0398041 0.0414415 0
0.0452859 0.0385907 0
0.045488 0.0415756 0
0.0424495 0.0385049 0
0.0426161 0.0415021 0
0.0481946 0.0386927 0
0.0484341 0.0416631 0
0.0452859 0.0385907 0
0.045488 0.0415756 0
0.00976104 0.0355035 0
0.00956028 0.0385153 0
0.00680214 0.0355989 0
0.00658489 0.038599 0
0.0126496 0.0354171 0
0.0124693 0.0384397 0
0.00976104 0.0355035 0
0.00956028 0.0385153 0
0.0154685 0.0353444 0
0.0153144 0.0383746 0
0.0126496 0.0354171 0
0.0124693 0.0384397 0
0.0182248 0.0352895 0
0.018102 0.038323 0
0.0154685 0.0353444 0
0.0153144 0.0383746 0
0.0209303 0.0352548 0
0.0208418 0.0382867 0
0.0182248 0.0352895 0
0.018102 0.038323 0
0.0235985 0.03524 0
0.0235454 0.0382665 0
0.0209303 0.0352548 0
0.0208418 0.0382867 0
0.0262429 0.0352435 0
0.0262249 0.0382617 0
0.0235985 0.03524 0
0.0235454 0.0382665 0
0.0288762 0.0352629 0
0.0288925 0.0382713 0
0.0262429 0.0352435 0
0.0262249 0.0382617 0
0.0315098 0.0352961 0
0.0315597 0.0382939 0
0.0288762 0.0352629 0
0.0288925 0.0382713 0
0.0341544 0.0353414 0
0.0342379 0.0383286 0
0.0315098 0.0352961 0
0.0315597 0.0382939 0
0.0368203 0.0353985 0
0.0369379 0.038375 0
0.0341544 0.0353414 0
0.0342379 0.0383286 0
0.0395179 0.0354675 0
0.0396711 0.0384335 0
0.0368203 0.0353985 0
0.0369379 0.038375 0
0.0422583 0.03555 0
0.0424495 0.0385049 0
0.0395179 0.0354675 0
0.0396711 0.0384335 0
0.0450538 0.0356479 0
0.0452859 0.0385907 0
0.0422583 0.03555 0
0.0424495 0.0385049 0
0.0479187 0.035764 0
0.0481946 0.0386927 0
0.0450538 0.0356479 0
0.0452859 0.0385907 0
0.00999087 0.032506 0
0.00976104 0.0355035 0
0.00704627 0.0326134 0
0.00680214 0.0355989 0
0.012857 0.0324088 0
0.0126496 0.0354171 0
0.00999087 0.032506 0
0.00976104 0.0355035 0
0.0156438 0.0323301 0
0.0154685 0.0353444 0
0.012857 0.0324088 0
0.0126496 0.0354171 0
0.0183611 0.0322761 0
0.0182248 0.0352895 0
0.0156438 0.0323301 0
0.0154685 0.0353444 0
0.0210246 0.0322484 0
0.0209303 0.0352548 0
0.0183611 0.0322761 0
0.0182248 0.0352895 0
0.023651 0.0322452 0
0.0235985 0.03524 0
0.0210246 0.0322484 0
0.0209303 0.0352548 0
0.0262555 0.0322625 0
0.0262429 0.0352435 0
0.023651 0.0322452 0
0.0235985 0.03524 0
0.0288509 0.0322963 0
0.0288762 0.0352629 0
0.0262555 0.0322625 0
0.0262429 0.0352435 0
0.031448 0.0323435 0
0.0315098 0.0352961 0
0.0288509 0.0322963 0
0.0288762 0.0352629 0
0.0340566 0.0324019 0
0.0341544 0.0353414 0
0.031448 0.0323435 0
0.0315098 0.0352961 0
0.0366857 0.0324711 0
0.0368203 0.0353985 0
0.0340566 0.0324019 0
0.0341544 0.0353414 0
0.0393446 0.0325515 0
0.0395179 0.0354675 0
0.0366857 0.0324711 0
0.0368203 0.0353985 0
0.0420433 0.0326451 0
0.0422583 0.03555 0
0.0393446 0.0325515 0
0.0395179 0.0354675 0
0.0447932 0.0327547 0
0.0450538 0.0356479 0
0.0420433 0.0326451 0
0.0422583 0.03555 0
0.0476077 0.0328843 0
0.0479187 0.035764 0
0.0447932 0.0327547 0
0.0450538 0.0356479 0
0.0102531 0.0295168 0
0.00999087 0.032506 0
0.00731801 0.0296372 0
0.00704627 0.0326134 0
0.0130936 0.0294091 0
0.012857 0.0324088 0
0.0102531 0.0295168 0
0.00999087 0.032506 0
0.0158391 0.0293284 0
0.0156438 0.0323301 0
0.0130936 0.0294091 0
0.012857 0.0324088 0
0.0185066 0.0292826 0
0.0183611 0.0322761 0
0.0158391 0.0293284 0
0.0156438 0.0323301 0
0.0211191 0.0292711 0
0.0210246 0.0322484 0
0.0185066 0.0292826 0
0.0183611 0.0322761 0
0.0236975 0.029288 0
0.023651 0.0322452 0
0.0211191 0.0292711 0
0.0210246 0.0322484 0
0.0262581 0.0293262 0
0.0262555 0.0322625 0
0.0236975 0.029288 0
0.023651 0.0322452 0
0.0288131 0.0293798 0
0.0288509 0.0322963 0
0.0262581 0.0293262 0
0.0262555 0.0322625 0
0.0313721 0.0294448 0
0.031448 0.0323435 0
0.0288131 0.0293798 0
0.0288509 0.0322963 0
0.0339433 0.0295188 0
0.0340566 0.0324019 0
0.0313721 0.0294448 0
0.031448 0.0323435 0
0.0365341 0.0296014 0
0.0366857 0.0324711 0
0.0339433 0.0295188 0
0.0340566 0.0324019 0
0.0391522 0.0296937 0
0.0393446 0.0325515 0
0.0365341 0.0296014 0
0.0366857 0.0324711 0
0.041806 0.0297982 0
0.0420433 0.0326451 0
0.0391522 0.0296937 0
0.0393446 0.0325515 0
0.0445057 0.029919 0
0.0447932 0.0327547 0
0.041806 0.0297982 0
0.0420433 0.0326451 0
0.0472637 0.030061 0
0.0476077 0.0328843 0
0.0445057 0.029919 0
0.0447932 0.0327547 0
0.0105544 0.0265238 0
0.0102531 0.0295168 0
0.00761998 0.0266589 0
0.00731801 0.0296372 0
0.0133617 0.0264069 0
0.0130936 0.0294091 0
0.0105544 0.0265238 0
0.0102531 0.0295168 0
0.0160498 0.0263339 0
0.0158391 0.0293284 0
0.0133617 0.0264069 0
0.0130936 0.0294091 0
0.0186529 0.0263105 0
0.0185066 0.0292826 0
0.0160498 0.0263339 0
0.0158391 0.0293284 0
0.0212049 0.0263293 0
0.0211191 0.0292711 0
0.0186529 0.0263105 0
0.0185066 0.0292826 0
0.0237304 0.0263776 0
0.0236975 0.029288 0
0.0212049 0.0263293 0
0.0211191 0.0292711 0
0.026245 0.0264449 0
0.0262581 0.0293262 0
0.0237304 0.0263776 0
0.0236975 0.029288 0
0.028759 0.0265238 0
0.0288131 0.0293798 0
0.026245 0.0264449 0
0.0262581 0.0293262 0
0.0312799 0.02661 0
0.0313721 0.0294448 0
0.028759 0.0265238 0
0.0288131 0.0293798 0
0.0338136 0.0267015 0
0.0339433 0.0295188 0
0.0312799 0.02661 0
0.0313721 0.0294448 0
0.0363656 0.0267985 0
0.0365341 0.0296014 0
0.0338136 0.0267015 0
0.0339433 0.0295188 0
0.0389416 0.0269027 0
0.0391522 0.0296937 0
0.0363656 0.0267985 0
0.0365341 0.0296014 0
0.0415484 0.0270176 0
0.041806 0.0297982 0
0.0389416 0.0269027 0
0.0391522 0.0296937 0
0.0441941 0.0271484 0
0.0445057 0.029919 0
0.0415484 0.0270176 0
0.041806 0.0297982 0
0.0468895 0.0273015 0
0.0472637 0.030061 0
0.0441941 0.0271484 0
0.0445057 0.029919 0
0.0109069 0.0235021 0
0.0105544 0.0265238 0
0.00796086 0.0236585 0
0.00761998 0.0266589 0
0.0136601 0.0233862 0
0.0133617 0.0264069 0
0.0109069 0.0235021 0
0.0105544 0.0265238 0
0.0162636 0.0233421 0
0.0160498 0.0263339 0
0.0136601 0.0233862 0
0.0133617 0.0264069 0
0.0187843 0.0233677 0
0.0186529 0.0263105 0
0.0162636 0.0233421 0
0.0160498 0.0263339 0
0.0212694 0.0234361 0
0.0212049 0.0263293 0
0.0187843 0.0233677 0
0.0186529 0.0263105 0
0.0237408 0.0235283 0
0.0237304 0.0263776 0
0.0212694 0.0234361 0
0.0212049 0.0263293 0
0.0262104 0.023632 0
0.026245 0.0264449 0
0.0237408 0.0235283 0
0.0237304 0.0263776 0
0.0286852 0.0237405 0
0.028759 0.0265238 0
0.0262104 0.023632 0
0.026245 0.0264449 0
0.0311697 0.0238501 0
0.0312799 0.02661 0
0.0286852 0.0237405 0
0.028759 0.0265238 0
0.0336672 0.0239601 0
0.0338136 0.0267015 0
0.0311697 0.0238501 0
0.0312799 0.02661 0
0.0361811 0.0240714 0
0.0363656 0.0267985 0
0.0336672 0.0239601 0
0.0338136 0.0267015 0
0.0387149 0.0241869 0
0.0389416 0.0269027 0
0.0361811 0.0240714 0
0.0363656 0.0267985 0
0.0412731 0.0243112 0
0.0415484 0.0270176 0
0.0387149 0.0241869 0
0.0389416 0.0269027 0
0.0438619 0.0244505 0
0.0441941 0.0271484 0
0.0412731 0.0243112 0
0.0415484 0.0270176 0
0.0464894 0.0246129 0
0.0468895 0.0273015 0
0.0438619 0.0244505 0
0.0441941 0.0271484 0
0.0113302 0.0204136 0
0.0109069 0.0235021 0
0.00836144 0.0205787 0
0.00796086 0.0236585 0
0.0139733 0.0203197 0
0.0136601 0.0233862 0
0.0113302 0.0204136 0
0.0109069 0.0235021 0
0.0164474 0.0203669 0
0.0162636 0.0233421 0
0.0139733 0.0203197 0
0.0136601 0.0233862 0
0.018879 0.0204776 0
0.0187843 0.0233677 0
0.0164474 0.0203669 0
0.0162636 0.0233421 0
0.0212987 0.0206149 0
0.0212694 0.0234361 0
0.018879 0.0204776 0
0.0187843 0.0233677 0
0.0237205 0.0207602 0
0.0237408 0.0235283 0
0.0212987 0.0206149 0
0.0212694 0.0234361 0
0.0261499 0.0209046 0
0.0262104 0.023632 0
0.0237205 0.0207602 0
0.0237408 0.0235283 0
0.0285897 0.0210438 0
0.0286852 0.0237405 0
0.0261499 0.0209046 0
0.0262104 0.023632 0
0.0310412 0.0211768 0
0.0311697 0.0238501 0
0.0285897 0.0210438 0
0.0286852 0.0237405 0
0.0335051 0.0213043 0
0.0336672 0.0239601 0
0.0310412 0.0211768 0
0.0311697 0.0238501 0
0.0359825 0.0214288 0
0.0361811 0.0240714 0
0.0335051 0.0213043 0
0.0336672 0.0239601 0
0.0384746 0.0215542 0
0.0387149 0.0241869 0
0.0359825 0.0214288 0
0.0361811 0.0240714 0
0.0409838 0.0216861 0
0.0412731 0.0243112 0
0.0384746 0.0215542 0
0.0387149 0.0241869 0
0.0435134 0.021832 0
0.0438619 0.0244505 0
0.0409838 0.0216861 0
0.0412731 0.0243112 0
0.0460689 0.0220012 0
0.0464894 0.0246129 0
0.0435134 0.021832 0
0.0438619 0.0244505 0
0.0118381 0.0171196 0
0.0113302 0.0204136 0
0.0089349 0.0173865 0
0.00836144 0.0205787 0
0.0142074 0.0172524 0
0.0139733 0.0203197 0
0.0118381 0.0171196 0
0.0113302 0.0204136 0
0.0165622 0.0174649 0
0.0164474 0.0203669 0
0.0142074 0.0172524 0
0.0139733 0.0203197 0
0.0189159 0.017687 0
0.018879 0.0204776 0
0.0165622 0.0174649 0
0.0164474 0.0203669 0
0.0212832 0.0179001 0
0.0212987 0.0206149 0
0.0189159 0.017687 0
0.018879 0.0204776 0
0.0236655 0.0180986 0
0.0237205 0.0207602 0
0.0212832 0.0179001 0
0.0212987 0.0206149 0
0.0260624 0.018281 0
0.0261499 0.0209046 0
0.0236655 0.0180986 0
0.0237205 0.0207602 0
0.028473 0.0184478 0
0.0285897 0.0210438 0
0.0260624 0.018281 0
0.0261499 0.0209046 0
0.0308958 0.018601 0
0.0310412 0.0211768 0
0.028473 0.0184478 0
0.0285897 0.0210438 0
0.0333293 0.0187431 0
0.0335051 0.0213043 0
0.0308958 0.018601 0
0.0310412 0.0211768 0
0.0357725 0.0188781 0
0.0359825 0.0214288 0
0.0333293 0.0187431 0
0.0335051 0.0213043 0
0.0382243 0.019011 0
0.0384746 0.0215542 0
0.0357725 0.0188781 0
0.0359825 0.0214288 0
0.0406846 0.0191483 0
0.0409838 0.0216861 0
0.0382243 0.019011 0
0.0384746 0.0215542 0
0.043154 0.0192983 0
0.0435134 0.021832 0
0.0406846 0.0191483 0
0.0409838 0.0216861 0
0.0456345 0.0194715 0
0.0460689 0.0220012 0
0.043154 0.0192983 0
0.0435134 0.021832 0
0.0120538 0.0138853 0
0.0118381 0.0171196 0
0.00998961 0.0132603 0
0.0089349 0.0173865 0
0.0143103 0.0143698 0
0.0142074 0.0172524 0
0.0120538 0.0138853 0
0.0118381 0.0171196 0
0.0165839 0.0147435 0
0.0165622 0.0174649 0
0.0143103 0.0143698 0
0.0142074 0.0172524 0
0.0188913 0.0150583 0
0.0189159 0.017687 0
0.0165839 0.0147435 0
0.0165622 0.0174649 0
0.0212241 0.0153302 0
0.0212832 0.0179001 0
0.0188913 0.0150583 0
0.0189159 0.017687 0
0.0235787 0.0155683 0
0.0236655 0.0180986 0
0.0212241 0.0153302 0
0.0212832 0.0179001 0
0.0259514 0.0157783 0
0.0260624 0.018281 0
0.0235787 0.0155683 0
0.0236655 0.0180986 0
0.0283387 0.0159646 0
0.028473 0.0184478 0
0.0259514 0.0157783 0
0.0260624 0.018281 0
0.0307372 0.0161315 0
0.0308958 0.018601 0
0.0283387 0.0159646 0
0.028473 0.0184478 0
0.0331436 0.0162833 0
0.0333293 0.0187431 0
0.0307372 0.0161315 0
0.0308958 0.018601 0
0.035555 0.0164249 0
0.0357725 0.0188781 0
0.0331436 0.0162833 0
0.0333293 0.0187431 0
0.0379683 0.016562 0
0.0382243 0.019011 0
0.035555 0.0164249 0
0.0357725 0.0188781 0
0.0403807 0.0167017 0
0.0406846 0.0191483 0
0.0379683 0.016562 0
0.0382243 0.019011 0
0.04279 0.016853 0
0.043154 0.0192983 0
0.0403807 0.0167017 0
0.0406846 0.0191483 0
0.0451942 0.0170271 0
0.0456345 0.0194715 0
0.04279 0.016853 0
0.043154 0.0192983 0
0.0121564 0.0114418 0
0.0120538 0.0138853 0
0.0103062 0.0109655 0
0.00998961 0.0132603 0
0.0143092 0.0118967 0
0.0143103 0.0143698 0
0.0121564 0.0114418 0
0.0120538 0.0138853 0
0.0165466 0.0122993 0
0.0165839 0.0147435 0
0.0143092 0.0118967 0
0.0143103 0.0143698 0
0.018825 0.0126408 0
0.0188913 0.0150583 0
0.0165466 0.0122993 0
0.0165839 0.0147435 0
0.0211356 0.0129337 0
0.0212241 0.0153302 0
0.018825 0.0126408 0
0.0188913 0.0150583 0