# vtk DataFile Version 3.0
#This file was generated by the deal.II library on 2021/1/5 at 13:55:19
ASCII
DATASET UNSTRUCTURED_GRID

POINTS 2700 double
0.0322581 0.516129 0
0 0.516129 0
0.0322581 0.483871 0
0 0.483871 0
0.0322581 0.548387 0
0 0.548387 0
0.0322581 0.516129 0
0 0.516129 0
0.0322581 0.580645 0
0 0.580645 0
0.0322581 0.548387 0
0 0.548387 0
0.0322581 0.612903 0
0 0.612903 0
0.0322581 0.580645 0
0 0.580645 0
0.0322581 0.645161 0
0 0.645161 0
0.0322581 0.612903 0
0 0.612903 0
0.0322581 0.677419 0
0 0.677419 0
0.0322581 0.645161 0
0 0.645161 0
0.0322581 0.709677 0
0 0.709677 0
0.0322581 0.677419 0
0 0.677419 0
0.0322581 0.741935 0
0 0.741935 0
0.0322581 0.709677 0
0 0.709677 0
0.0322581 0.774193 0
0 0.774193 0
0.0322581 0.741935 0
0 0.741935 0
0.0322581 0.806452 0
0 0.806452 0
0.0322581 0.774193 0
0 0.774193 0
0.0322581 0.83871 0
0 0.83871 0
0.0322581 0.806452 0
0 0.806452 0
0.0322581 0.870968 0
0 0.870968 0
0.0322581 0.83871 0
0 0.83871 0
0.0322581 0.903226 0
0 0.903226 0
0.0322581 0.870968 0
0 0.870968 0
0.0322581 0.935484 0
0 0.935484 0
0.0322581 0.903226 0
0 0.903226 0
0.0322581 0.967742 0
0 0.967742 0
0.0322581 0.935484 0
0 0.935484 0
0.0645161 0.516129 0
0.0322581 0.516129 0
0.0645161 0.483871 0
0.0322581 0.483871 0
0.0645161 0.548387 0
0.0322581 0.548387 0
0.0645161 0.516129 0
0.0322581 0.516129 0
0.0645161 0.580645 0
0.0322581 0.580645 0
0.0645161 0.548387 0
0.0322581 0.548387 0
0.0645161 0.612903 0
0.0322581 0.612903 0
0.0645161 0.580645 0
0.0322581 0.580645 0
0.0645161 0.645161 0
0.0322581 0.645161 0
0.0645161 0.612903 0
0.0322581 0.612903 0
0.0645161 0.677419 0
0.0322581 0.677419 0
0.0645161 0.645161 0
0.0322581 0.645161 0
0.0645161 0.709677 0
0.0322581 0.709677 0
0.0645161 0.677419 0
0.0322581 0.677419 0
0.0645161 0.741935 0
0.0322581 0.741935 0
0.0645161 0.709677 0
0.0322581 0.709677 0
0.0645161 0.774193 0
0.0322581 0.774193 0
0.0645161 0.741935 0
0.0322581 0.741935 0
0.0645161 0.806452 0
0.0322581 0.806452 0
0.0645161 0.774193 0
0.0322581 0.774193 0
0.0645161 0.83871 0
0.0322581 0.83871 0
0.0645161 0.806452 0
0.0322581 0.806452 0
0.0645161 0.870968 0
0.0322581 0.870968 0
0.0645161 0.83871 0
0.0322581 0.83871 0
0.0645161 0.903226 0
0.0322581 0.903226 0
0.0645161 0.870968 0
0.0322581 0.870968 0
0.0645161 0.935484 0
0.0322581 0.935484 0
0.0645161 0.903226 0
0.0322581 0.903226 0
0.0645161 0.967742 0
0.0322581 0.967742 0
0.0645161 0.935484 0
0.0322581 0.935484 0
0.0967742 0.516129 0
0.0645161 0.516129 0
0.0967742 0.483871 0
0.0645161 0.483871 0
0.0967742 0.548387 0
0.0645161 0.548387 0
0.0967742 0.516129 0
0.0645161 0.516129 0
0.0967742 0.580645 0
0.0645161 0.580645 0
0.0967742 0.548387 0
0.0645161 0.548387 0
0.0967742 0.612903 0
0.0645161 0.612903 0
0.0967742 0.580645 0
0.0645161 0.580645 0
0.0967742 0.645161 0
0.0645161 0.645161 0
0.0967742 0.612903 0
0.0645161 0.612903 0
0.0967742 0.677419 0
0.0645161 0.677419 0
0.0967742 0.645161 0
0.0645161 0.645161 0
0.0967742 0.709677 0
0.0645161 0.709677 0
0.0967742 0.677419 0
0.0645161 0.677419 0
0.0967742 0.741935 0
0.0645161 0.741935 0
0.0967742 0.709677 0
0.0645161 0.709677 0
0.0967742 0.774193 0
0.0645161 0.774193 0
0.0967742 0.741935 0
0.0645161 0.741935 0
0.0967742 0.806452 0
0.0645161 0.806452 0
0.0967742 0.774193 0
0.0645161 0.774193 0
0.0967742 0.83871 0
0.0645161 0.83871 0
0.0967742 0.806452 0
0.0645161 0.806452 0
0.0967742 0.870968 0
0.0645161 0.870968 0
0.0967742 0.83871 0
0.0645161 0.83871 0
0.0967742 0.903226 0
0.0645161 0.903226 0
0.0967742 0.870968 0
0.0645161 0.870968 0
0.0967742 0.935484 0
0.0645161 0.935484 0
0.0967742 0.903226 0
0.0645161 0.903226 0
0.0967742 0.967742 0
0.0645161 0.967742 0
0.0967742 0.935484 0
0.0645161 0.935484 0
0.129032 0.516129 0
0.0967742 0.516129 0
0.129032 0.483871 0
0.0967742 0.483871 0
0.129032 0.548387 0
0.0967742 0.548387 0
0.129032 0.516129 0
0.0967742 0.516129 0
0.129032 0.580645 0
0.0967742 0.580645 0
0.129032 0.548387 0
0.0967742 0.548387 0
0.129032 0.612903 0
0.0967742 0.612903 0
0.129032 0.580645 0
0.0967742 0.580645 0
0.129032 0.645161 0
0.0967742 0.645161 0
0.129032 0.612903 0
0.0967742 0.612903 0
0.129032 0.677419 0
0.0967742 0.677419 0
0.129032 0.645161 0
0.0967742 0.645161 0
0.129032 0.709677 0
0.0967742 0.709677 0
0.129032 0.677419 0
0.0967742 0.677419 0
0.129032 0.741935 0
0.0967742 0.741935 0
0.129032 0.709677 0
0.0967742 0.709677 0
0.129032 0.774193 0
0.0967742 0.774193 0
0.129032 0.741935 0
0.0967742 0.741935 0
0.129032 0.806452 0
0.0967742 0.806452 0
0.129032 0.774193 0
0.0967742 0.774193 0
0.129032 0.83871 0
0.0967742 0.83871 0
0.129032 0.806452 0
0.0967742 0.806452 0
0.129032 0.870968 0
0.0967742 0.870968 0
0.129032 0.83871 0
0.0967742 0.83871 0
0.129032 0.903226 0
0.0967742 0.903226 0
0.129032 0.870968 0
0.0967742 0.870968 0
0.129032 0.935484 0
0.0967742 0.935484 0
0.129032 0.903226 0
0.0967742 0.903226 0
0.129032 0.967742 0
0.0967742 0.967742 0
0.129032 0.935484 0
0.0967742 0.935484 0
0.16129 0.516129 0
0.129032 0.516129 0
0.16129 0.483871 0
0.129032 0.483871 0
0.16129 0.548387 0
0.129032 0.548387 0
0.16129 0.516129 0
0.129032 0.516129 0
0.16129 0.580645 0
0.129032 0.580645 0
0.16129 0.548387 0
0.129032 0.548387 0
0.16129 0.612903 0
0.129032 0.612903 0
0.16129 0.580645 0
0.129032 0.580645 0
0.16129 0.645161 0
0.129032 0.645161 0
0.16129 0.612903 0
0.129032 0.612903 0
0.16129 0.677419 0
0.129032 0.677419 0
0.16129 0.645161 0
0.129032 0.645161 0
0.16129 0.709677 0
0.129032 0.709677 0
0.16129 0.677419 0
0.129032 0.677419 0
0.16129 0.741935 0
0.129032 0.741935 0
0.16129 0.709677 0
0.129032 0.709677 0
0.16129 0.774193 0
0.129032 0.774193 0
0.16129 0.741935 0
0.129032 0.741935 0
0.16129 0.806452 0
0.129032 0.806452 0
0.16129 0.774193 0
0.129032 0.774193 0
0.16129 0.83871 0
0.129032 0.83871 0
0.16129 0.806452 0
0.129032 0.806452 0
0.16129 0.870968 0
0.129032 0.870968 0
0.16129 0.83871 0
0.129032 0.83871 0
0.16129 0.903226 0
0.129032 0.903226 0
0.16129 0.870968 0
0.129032 0.870968 0
0.16129 0.935484 0
0.129032 0.935484 0
0.16129 0.903226 0
0.129032 0.903226 0
0.16129 0.967742 0
0.129032 0.967742 0
0.16129 0.935484 0
0.129032 0.935484 0
0.193548 0.516129 0
0.16129 0.516129 0
0.193548 0.483871 0
0.16129 0.483871 0
0.193548 0.548387 0
0.16129 0.548387 0
0.193548 0.516129 0
0.16129 0.516129 0
0.193548 0.580645 0
0.16129 0.580645 0
0.193548 0.548387 0
0.16129 0.548387 0
0.193548 0.612903 0
0.16129 0.612903 0
0.193548 0.580645 0
0.16129 0.580645 0
0.193548 0.645161 0
0.16129 0.645161 0
0.193548 0.612903 0
0.16129 0.612903 0
0.193548 0.677419 0
0.16129 0.677419 0
0.193548 0.645161 0
0.16129 0.645161 0
0.193548 0.709677 0
0.16129 0.709677 0
0.193548 0.677419 0
0.16129 0.677419 0
0.193548 0.741935 0
0.16129 0.741935 0
0.193548 0.709677 0
0.16129 0.709677 0
0.193548 0.774193 0
0.16129 0.774193 0
0.193548 0.741935 0
0.16129 0.741935 0
0.193548 0.806452 0
0.16129 0.806452 0
0.193548 0.774193 0
0.16129 0.774193 0
0.193548 0.83871 0
0.16129 0.83871 0
0.193548 0.806452 0
0.16129 0.806452 0
0.193548 0.870968 0
0.16129 0.870968 0
0.193548 0.83871 0
0.16129 0.83871 0
0.193548 0.903226 0
0.16129 0.903226 0
0.193548 0.870968 0
0.16129 0.870968 0
0.193548 0.935484 0
0.16129 0.935484 0
0.193548 0.903226 0
0.16129 0.903226 0
0.193548 0.967742 0
0.16129 0.967742 0
0.193548 0.935484 0
0.16129 0.935484 0
0.225806 0.516129 0
0.193548 0.516129 0
0.225806 0.483871 0
0.193548 0.483871 0
0.225806 0.548387 0
0.193548 0.548387 0
0.225806 0.516129 0
0.193548 0.516129 0
0.225806 0.580645 0
0.193548 0.580645 0
0.225806 0.548387 0
0.193548 0.548387 0
0.225806 0.612903 0
0.193548 0.612903 0
0.225806 0.580645 0
0.193548 0.580645 0
0.225806 0.645161 0
0.193548 0.645161 0
0.225806 0.612903 0
0.193548 0.612903 0
0.225806 0.677419 0
0.193548 0.677419 0
0.225806 0.645161 0
0.193548 0.645161 0
0.225806 0.709677 0
0.193548 0.709677 0
0.225806 0.677419 0
0.193548 0.677419 0
0.225806 0.741935 0
0.193548 0.741935 0
0.225806 0.709677 0
0.193548 0.709677 0
0.225806 0.774193 0
0.193548 0.774193 0
0.225806 0.741935 0
0.193548 0.741935 0
0.225806 0.806452 0
0.193548 0.806452 0
0.225806 0.774193 0
0.193548 0.774193 0
0.225806 0.83871 0
0.193548 0.83871 0
0.225806 0.806452 0
0.193548 0.806452 0
0.225806 0.870968 0
0.193548 0.870968 0
0.225806 0.83871 0
0.193548 0.83871 0
0.225806 0.903226 0
0.193548 0.903226 0
0.225806 0.870968 0
0.193548 0.870968 0
0.225806 0.935484 0
0.193548 0.935484 0
0.225806 0.903226 0
0.193548 0.903226 0
0.225806 0.967742 0
0.193548 0.967742 0
0.225806 0.935484 0
0.193548 0.935484 0
0.258064 0.516129 0
0.225806 0.516129 0
0.258064 0.483871 0
0.225806 0.483871 0
0.258064 0.548387 0
0.225806 0.548387 0
0.258064 0.516129 0
0.225806 0.516129 0
0.258064 0.580645 0
0.225806 0.580645 0
0.258064 0.548387 0
0.225806 0.548387 0
0.258064 0.612903 0
0.225806 0.612903 0
0.258064 0.580645 0
0.225806 0.580645 0
0.258064 0.645161 0
0.225806 0.645161 0
0.258064 0.612903 0
0.225806 0.612903 0
0.258064 0.677419 0
0.225806 0.677419 0
0.258064 0.645161 0
0.225806 0.645161 0
0.258064 0.709677 0
0.225806 0.709677 0
0.258064 0.677419 0
0.225806 0.677419 0
0.258064 0.741935 0
0.225806 0.741935 0
0.258064 0.709677 0
0.225806 0.709677 0
0.258064 0.774193 0
0.225806 0.774193 0
0.258064 0.741935 0
0.225806 0.741935 0
0.258064 0.806452 0
0.225806 0.806452 0
0.258064 0.774193 0
0.225806 0.774193 0
0.258064 0.83871 0
0.225806 0.83871 0
0.258064 0.806452 0
0.225806 0.806452 0
0.258064 0.870968 0
0.225806 0.870968 0
0.258064 0.83871 0
0.225806 0.83871 0
0.258064 0.903226 0
0.225806 0.903226 0
0.258064 0.870968 0
0.225806 0.870968 0
0.258064 0.935484 0
0.225806 0.935484 0
0.258064 0.903226 0
0.225806 0.903226 0
0.258064 0.967742 0
0.225806 0.967742 0
0.258064 0.935484 0
0.225806 0.935484 0
0.290323 0.516129 0
0.258064 0.516129 0
0.290323 0.483871 0
0.258064 0.483871 0
0.290323 0.548387 0
0.258064 0.548387 0
0.290323 0.516129 0
0.258064 0.516129 0
0.290323 0.580645 0
0.258064 0.580645 0
0.290323 0.548387 0
0.258064 0.548387 0
0.290323 0.612903 0
0.258064 0.612903 0
0.290323 0.580645 0
0.258064 0.580645 0
0.290323 0.645161 0
0.258064 0.645161 0
[...]
POINT_DATA 2700
VECTORS u double
0.0104057 0.0663874 0
0.01039 0.07 0
0.00685057 0.0664018 0
0.00683284 0.07 0
0.0138849 0.0663747 0
0.0138712 0.07 0
0.0104057 0.0663874 0
0.01039 0.07 0
0.017298 0.0663635 0
0.0172862 0.07 0
0.0138849 0.0663747 0
0.0138712 0.07 0
0.0206548 0.0663539 0
0.0206451 0.07 0
0.017298 0.0663635 0
0.0172862 0.07 0
0.0239657 0.0663462 0
0.0239583 0.07 0
0.0206548 0.0663539 0
0.0206451 0.07 0
0.0272416 0.0663404 0
0.0272366 0.07 0
0.0239657 0.0663462 0
0.0239583 0.07 0
0.0304942 0.0663368 0
0.0304918 0.07 0
0.0272416 0.0663404 0
0.0272366 0.07 0
0.0337357 0.0663355 0
0.0337359 0.07 0
0.0304942 0.0663368 0
0.0304918 0.07 0
0.0369789 0.0663366 0
0.0369819 0.07 0
0.0337357 0.0663355 0
0.0337359 0.07 0
0.0402372 0.0663401 0
0.0402431 0.07 0
0.0369789 0.0663366 0
0.0369819 0.07 0
0.0435246 0.0663462 0
0.0435334 0.07 0
0.0402372 0.0663401 0
0.0402431 0.07 0
0.0468553 0.066355 0
0.0468672 0.07 0
0.0435246 0.0663462 0
0.0435334 0.07 0
0.0502442 0.0663664 0
0.0502593 0.07 0
0.0468553 0.066355 0
0.0468672 0.07 0
0.0537064 0.0663805 0
0.0537246 0.07 0
0.0502442 0.0663664 0
0.0502593 0.07 0
0.057257 0.0663975 0
0.0572783 0.07 0
0.0537064 0.0663805 0
0.0537246 0.07 0
0.0104527 0.0627792 0
0.0104057 0.0663874 0
0.00690365 0.0628078 0
0.00685057 0.0664018 0
0.0139261 0.0627537 0
0.0138849 0.0663747 0
0.0104527 0.0627792 0
0.0104057 0.0663874 0
0.0173332 0.0627314 0
0.017298 0.0663635 0
0.0139261 0.0627537 0
0.0138849 0.0663747 0
0.0206838 0.0627123 0
0.0206548 0.0663539 0
0.0173332 0.0627314 0
0.017298 0.0663635 0
0.0239879 0.0626969 0
0.0239657 0.0663462 0
0.0206838 0.0627123 0
0.0206548 0.0663539 0
0.0272567 0.0626856 0
0.0272416 0.0663404 0
0.0239879 0.0626969 0
0.0239657 0.0663462 0
0.0305016 0.0626786 0
0.0304942 0.0663368 0
0.0272567 0.0626856 0
0.0272416 0.0663404 0
0.033735 0.0626763 0
0.0337357 0.0663355 0
0.0305016 0.0626786 0
0.0304942 0.0663368 0
0.0369699 0.0626787 0
0.0369789 0.0663366 0
0.033735 0.0626763 0
0.0337357 0.0663355 0
0.0402196 0.0626861 0
0.0402372 0.0663401 0
0.0369699 0.0626787 0
0.0369789 0.0663366 0
0.043498 0.0626984 0
0.0435246 0.0663462 0
0.0402196 0.0626861 0
0.0402372 0.0663401 0
0.0468196 0.062716 0
0.0468553 0.066355 0
0.043498 0.0626984 0
0.0435246 0.0663462 0
0.0501991 0.0627389 0
0.0502442 0.0663664 0
0.0468196 0.062716 0
0.0468553 0.066355 0
0.0536518 0.0627672 0
0.0537064 0.0663805 0
0.0501991 0.0627389 0
0.0502442 0.0663664 0
0.057193 0.0628011 0
0.057257 0.0663975 0
0.0536518 0.0627672 0
0.0537064 0.0663805 0
0.0105309 0.0591795 0
0.0104527 0.0627792 0
0.00699176 0.0592223 0
0.00690365 0.0628078 0
0.0139948 0.0591414 0
0.0139261 0.0627537 0
0.0105309 0.0591795 0
0.0104527 0.0627792 0
0.0173921 0.0591079 0
0.0173332 0.0627314 0
0.0139948 0.0591414 0
0.0139261 0.0627537 0
0.0207321 0.0590795 0
0.0206838 0.0627123 0
0.0173921 0.0591079 0
0.0173332 0.0627314 0
0.024025 0.0590568 0
0.0239879 0.0626969 0
0.0207321 0.0590795 0
0.0206838 0.0627123 0
0.0272816 0.0590403 0
0.0272567 0.0626856 0
0.024025 0.0590568 0
0.0239879 0.0626969 0
0.0305136 0.0590305 0
0.0305016 0.0626786 0
0.0272816 0.0590403 0
0.0272567 0.0626856 0
0.0337337 0.0590277 0
0.033735 0.0626763 0
0.0305136 0.0590305 0
0.0305016 0.0626786 0
0.0369546 0.059032 0
0.0369699 0.0626787 0
0.0337337 0.0590277 0
0.033735 0.0626763 0
0.04019 0.0590436 0
0.0402196 0.0626861 0
0.0369546 0.059032 0
0.0369699 0.0626787 0
0.0434537 0.0590626 0
0.043498 0.0626984 0
0.04019 0.0590436 0
0.0402196 0.0626861 0
0.0467601 0.0590892 0
0.0468196 0.062716 0
0.0434537 0.0590626 0
0.043498 0.0626984 0
0.050124 0.0591237 0
0.0501991 0.0627389 0
0.0467601 0.0590892 0
0.0468196 0.062716 0
0.0535608 0.0591663 0
0.0536518 0.0627672 0
0.050124 0.0591237 0
0.0501991 0.0627389 0
0.0570861 0.0592172 0
0.057193 0.0628011 0
0.0535608 0.0591663 0
0.0536518 0.0627672 0
0.0106402 0.0555923 0
0.0105309 0.0591795 0
0.00711441 0.0556491 0
0.00699176 0.0592223 0
0.014091 0.0555416 0
0.0139948 0.0591414 0
0.0106402 0.0555923 0
0.0105309 0.0591795 0
0.0174747 0.0554971 0
0.0173921 0.0591079 0
0.014091 0.0555416 0
0.0139948 0.0591414 0
0.0207999 0.0554596 0
0.0207321 0.0590795 0
0.0174747 0.0554971 0
0.0173921 0.0591079 0
0.0240767 0.05543 0
0.024025 0.0590568 0
0.0207999 0.0554596 0
0.0207321 0.0590795 0
0.0273161 0.0554091 0
0.0272816 0.0590403 0
0.0240767 0.05543 0
0.024025 0.0590568 0
0.03053 0.0553973 0
0.0305136 0.0590305 0
0.0273161 0.0554091 0
0.0272816 0.0590403 0
0.0337312 0.055395 0
0.0337337 0.0590277 0
0.03053 0.0553973 0
0.0305136 0.0590305 0
0.0369328 0.0554022 0
0.0369546 0.059032 0
0.0337312 0.055395 0
0.0337337 0.0590277 0
0.0401482 0.0554188 0
0.04019 0.0590436 0
0.0369328 0.0554022 0
0.0369546 0.059032 0
0.0433914 0.055445 0
0.0434537 0.0590626 0
0.0401482 0.0554188 0
0.04019 0.0590436 0
0.0466767 0.0554811 0
0.0467601 0.0590892 0
0.0433914 0.055445 0
0.0434537 0.0590626 0
0.0500188 0.0555274 0
0.050124 0.0591237 0
0.0466767 0.0554811 0
0.0467601 0.0590892 0
0.0534333 0.0555843 0
0.0535608 0.0591663 0
0.0500188 0.0555274 0
0.050124 0.0591237 0
0.0569361 0.0556523 0
0.0570861 0.0592172 0
0.0534333 0.0555843 0
0.0535608 0.0591663 0
0.0107803 0.0520209 0
0.0106402 0.0555923 0
0.00727092 0.0520914 0
0.00711441 0.0556491 0
0.0142149 0.0519576 0
0.014091 0.0555416 0
0.0107803 0.0520209 0
0.0106402 0.0555923 0
0.0175811 0.0519023 0
0.0174747 0.0554971 0
0.0142149 0.0519576 0
0.014091 0.0555416 0
0.0208871 0.0518562 0
0.0207999 0.0554596 0
0.0175811 0.0519023 0
0.0174747 0.0554971 0
0.0241428 0.0518206 0
0.0240767 0.05543 0
0.0208871 0.0518562 0
0.0207999 0.0554596 0
0.0273597 0.0517965 0
0.0273161 0.0554091 0
0.0241428 0.0518206 0
0.0240767 0.05543 0
0.0305501 0.0517843 0
0.03053 0.0553973 0
0.0273597 0.0517965 0
0.0273161 0.0554091 0
0.033727 0.0517839 0
0.0337312 0.055395 0
0.0305501 0.0517843 0
0.03053 0.0553973 0
0.0369037 0.0517953 0
0.0369328 0.0554022 0
0.033727 0.0517839 0
0.0337312 0.055395 0
0.0400938 0.0518181 0
0.0401482 0.0554188 0
0.0369037 0.0517953 0
0.0369328 0.0554022 0
0.043311 0.0518524 0
0.0433914 0.055445 0
0.0400938 0.0518181 0
0.0401482 0.0554188 0
0.0465694 0.0518984 0
0.0466767 0.0554811 0
0.043311 0.0518524 0
0.0433914 0.055445 0
0.0498837 0.0519567 0
0.0500188 0.0555274 0
0.0465694 0.0518984 0
0.0466767 0.0554811 0
0.0532694 0.0520281 0
0.0534333 0.0555843 0
0.0498837 0.0519567 0
0.0500188 0.0555274 0
0.056743 0.0521132 0
0.0569361 0.0556523 0
0.0532694 0.0520281 0
0.0534333 0.0555843 0
0.0109514 0.0484678 0
0.0107803 0.0520209 0
0.00746051 0.048552 0
0.00727092 0.0520914 0
0.0143669 0.048392 0
0.0142149 0.0519576 0
0.0109514 0.0484678 0
0.0107803 0.0520209 0
0.0177117 0.0483262 0
0.0175811 0.0519023 0
0.0143669 0.048392 0
0.0142149 0.0519576 0
0.0209936 0.0482723 0
0.0208871 0.0518562 0
0.0177117 0.0483262 0
0.0175811 0.0519023 0
0.0242228 0.0482322 0
0.0241428 0.0518206 0
0.0209936 0.0482723 0
0.0208871 0.0518562 0
0.0274114 0.0482068 0
0.0273597 0.0517965 0
0.0242228 0.0482322 0
0.0241428 0.0518206 0
0.0305726 0.0481963 0
0.0305501 0.0517843 0
0.0274114 0.0482068 0
0.0273597 0.0517965 0
0.0337198 0.0482001 0
0.033727 0.0517839 0
0.0305726 0.0481963 0
0.0305501 0.0517843 0
0.0368665 0.0482176 0
0.0369037 0.0517953 0
0.0337198 0.0482001 0
0.033727 0.0517839 0
0.0400261 0.0482482 0
0.0400938 0.0518181 0
0.0368665 0.0482176 0
0.0369037 0.0517953 0
0.0432121 0.0482918 0
0.043311 0.0518524 0
0.0400261 0.0482482 0
0.0400938 0.0518181 0
0.0464381 0.0483485 0
0.0465694 0.0518984 0
0.0432121 0.0482918 0
0.043311 0.0518524 0
0.0497188 0.0484191 0
0.0498837 0.0519567 0
0.0464381 0.0483485 0
0.0465694 0.0518984 0
0.0530693 0.0485049 0
0.0532694 0.0520281 0
0.0497188 0.0484191 0
0.0498837 0.0519567 0
0.0565065 0.048607 0
0.056743 0.0521132 0
0.0530693 0.0485049 0
0.0532694 0.0520281 0
0.0111537 0.0449345 0
0.0109514 0.0484678 0
0.00768237 0.0450322 0
0.00746051 0.048552 0
0.0145475 0.0448463 0
0.0143669 0.048392 0
0.0111537 0.0449345 0
0.0109514 0.0484678 0
0.0178668 0.0447704 0
0.0177117 0.0483262 0
0.0145475 0.0448463 0
0.0143669 0.048392 0
0.021119 0.0447102 0
0.0209936 0.0482723 0
0.0178668 0.0447704 0
0.0177117 0.0483262 0
0.0243154 0.0446679 0
0.0242228 0.0482322 0
0.021119 0.0447102 0
0.0209936 0.0482723 0
0.0274696 0.0446443 0
0.0274114 0.0482068 0
0.0243154 0.0446679 0
0.0242228 0.0482322 0
0.0305957 0.0446387 0
0.0305726 0.0481963 0
0.0274696 0.0446443 0
0.0274114 0.0482068 0
0.0337079 0.0446498 0
0.0337198 0.0482001 0
0.0305957 0.0446387 0
0.0305726 0.0481963 0
0.0368197 0.0446762 0
0.0368665 0.0482176 0
0.0337079 0.0446498 0
0.0337198 0.0482001 0
0.0399442 0.0447167 0
0.0400261 0.0482482 0
0.0368197 0.0446762 0
0.0368665 0.0482176 0
0.0430942 0.0447709 0
0.0432121 0.0482918 0
0.0399442 0.0447167 0
0.0400261 0.0482482 0
0.046283 0.0448391 0
0.0464381 0.0483485 0
0.0430942 0.0447709 0
0.0432121 0.0482918 0
0.0495244 0.0449224 0
0.0497188 0.0484191 0
0.046283 0.0448391 0
0.0464381 0.0483485 0
0.0528335 0.0450225 0
0.0530693 0.0485049 0
0.0495244 0.0449224 0
0.0497188 0.0484191 0
0.056227 0.0451415 0
0.0565065 0.048607 0
0.0528335 0.0450225 0
0.0530693 0.0485049 0
0.0113879 0.0414208 0
0.0111537 0.0449345 0
0.00793583 0.0415321 0
0.00768237 0.0450322 0
0.0147579 0.04132 0
0.0145475 0.0448463 0
0.0113879 0.0414208 0
0.0111537 0.0449345 0
0.0180466 0.0412351 0
0.0178668 0.0447704 0
0.0147579 0.04132 0
0.0145475 0.0448463 0
0.0212623 0.0411711 0
0.021119 0.0447102 0
0.0180466 0.0412351 0
0.0178668 0.0447704 0
0.0244187 0.0411306 0
0.0243154 0.0446679 0
0.0212623 0.0411711 0
0.021119 0.0447102 0
0.0275315 0.0411134 0
0.0274696 0.0446443 0
0.0244187 0.0411306 0
0.0243154 0.0446679 0
0.0306167 0.0411175 0
0.0305957 0.0446387 0
0.0275315 0.0411134 0
0.0274696 0.0446443 0
0.0336889 0.0411401 0
0.0337079 0.0446498 0
0.0306167 0.0411175 0
0.0305957 0.0446387 0
0.0367614 0.0411788 0
0.0368197 0.0446762 0
0.0336889 0.0411401 0
0.0337079 0.0446498 0
0.0398468 0.0412317 0
0.0399442 0.0447167 0
0.0367614 0.0411788 0
0.0368197 0.0446762 0
0.042957 0.0412982 0
0.0430942 0.0447709 0
0.0398468 0.0412317 0
0.0399442 0.0447167 0
0.0461042 0.0413788 0
0.046283 0.0448391 0
0.042957 0.0412982 0
0.0430942 0.0447709 0
0.0493013 0.041475 0
0.0495244 0.0449224 0
0.0461042 0.0413788 0
0.046283 0.0448391 0
0.0525628 0.0415892 0
0.0528335 0.0450225 0
0.0493013 0.041475 0
0.0495244 0.0449224 0
0.0559051 0.0417246 0
0.056227 0.0451415 0
0.0525628 0.0415892 0
0.0528335 0.0450225 0
0.011656 0.0379237 0
0.0113879 0.0414208 0
0.00822065 0.038049 0
0.00793583 0.0415321 0
0.0149999 0.0378103 0
0.0147579 0.04132 0
0.011656 0.0379237 0
0.0113879 0.0414208 0
0.0182511 0.0377185 0
0.0180466 0.0412351 0
0.0149999 0.0378103 0
0.0147579 0.04132 0
0.0214213 0.0376554 0
0.0212623 0.0411711 0
0.0182511 0.0377185 0
0.0180466 0.0412351 0
0.0245287 0.0376231 0
0.0244187 0.0411306 0
0.0214213 0.0376554 0
0.0212623 0.0411711 0
0.0275929 0.0376193 0
0.0275315 0.0411134 0
0.0245287 0.0376231 0
0.0244187 0.0411306 0
0.0306314 0.0376395 0
0.0306167 0.0411175 0
0.0275929 0.0376193 0
0.0275315 0.0411134 0
0.0336594 0.037679 0
0.0336889 0.0411401 0
0.0306314 0.0376395 0
0.0306167 0.0411175 0
0.0366894 0.0377341 0
0.0367614 0.0411788 0
0.0336594 0.037679 0
0.0336889 0.0411401 0
0.0397327 0.0378023 0
0.0398468 0.0412317 0
0.0366894 0.0377341 0
0.0367614 0.0411788 0
0.0428 0.0378829 0
0.042957 0.0412982 0
0.0397327 0.0378023 0
0.0398468 0.0412317 0
0.0459021 0.0379767 0
0.0461042 0.0413788 0
0.0428 0.0378829 0
0.042957 0.0412982 0
0.0490506 0.0380859 0
0.0493013 0.041475 0
0.0459021 0.0379767 0
0.0461042 0.0413788 0
0.0522587 0.0382138 0
0.0525628 0.0415892 0
0.0490506 0.0380859 0
0.0493013 0.041475 0
0.0555423 0.038365 0
0.0559051 0.0417246 0
0.0522587 0.0382138 0
0.0525628 0.0415892 0
0.011962 0.0344362 0
0.011656 0.0379237 0
0.00853768 0.0345768 0
0.00822065 0.038049 0
0.0152759 0.0343106 0
0.0149999 0.0378103 0
0.011962 0.0344362 0
0.011656 0.0379237 0
0.0184789 0.0342164 0
0.0182511 0.0377185 0
0.0152759 0.0343106 0
0.0149999 0.0378103 0
0.021591 0.0341631 0
0.0214213 0.0376554 0
0.0184789 0.0342164 0
0.0182511 0.0377185 0
0.024639 0.0341496 0
0.0245287 0.0376231 0
0.021591 0.0341631 0
0.0214213 0.0376554 0
0.0276471 0.0341693 0
0.0275929 0.0376193 0
0.024639 0.0341496 0
0.0245287 0.0376231 0
0.0306344 0.0342139 0
0.0306314 0.0376395 0
0.0276471 0.0341693 0
0.0275929 0.0376193 0
0.0336153 0.0342765 0
0.0336594 0.037679 0
0.0306344 0.0342139 0
0.0306314 0.0376395 0
0.0366008 0.0343523 0
0.0366894 0.0377341 0
0.0336153 0.0342765 0
0.0336594 0.037679 0
0.0396005 0.0344386 0
0.0397327 0.0378023 0
0.0366008 0.0343523 0
0.0366894 0.0377341 0
0.0426231 0.034535 0
0.0428 0.0378829 0
0.0396005 0.0344386 0
0.0397327 0.0378023 0
0.0456775 0.0346427 0
0.0459021 0.0379767 0
0.0426231 0.034535 0
0.0428 0.0378829 0
0.0487737 0.0347646 0
0.0490506 0.0380859 0
0.0456775 0.0346427 0
0.0459021 0.0379767 0
0.0519234 0.0349054 0
0.0522587 0.0382138 0
0.0487737 0.0347646 0
0.0490506 0.0380859 0
0.0551409 0.0350712 0
0.0555423 0.038365 0
0.0519234 0.0349054 0
0.0522587 0.0382138 0
0.0123134 0.0309444 0
0.011962 0.0344362 0
0.00888998 0.0311021 0
0.00853768 0.0345768 0
0.0155886 0.0308081 0
0.0152759 0.0343106 0
0.0123134 0.0309444 0
0.011962 0.0344362 0
0.0187248 0.0307229 0
0.0184789 0.0342164 0
0.0155886 0.0308081 0
0.0152759 0.0343106 0
0.0217617 0.0306956 0
0.021591 0.0341631 0
0.0187248 0.0307229 0
0.0184789 0.0342164 0
0.024739 0.0307176 0
0.024639 0.0341496 0
0.0217617 0.0306956 0
0.021591 0.0341631 0
0.0276855 0.0307739 0
0.0276471 0.0341693 0
0.024739 0.0307176 0
0.024639 0.0341496 0
0.0306192 0.0308523 0
0.0306344 0.0342139 0
0.0276855 0.0307739 0
0.0276471 0.0341693 0
0.0335522 0.0309444 0
0.0336153 0.0342765 0
0.0306192 0.0308523 0
0.0306344 0.0342139 0
0.0364932 0.031045 0
0.0366008 0.0343523 0
0.0335522 0.0309444 0
0.0336153 0.0342765 0
0.0394492 0.0311518 0
0.0396005 0.0344386 0
0.0364932 0.031045 0
0.0366008 0.0343523 0
0.0424265 0.0312649 0
0.0426231 0.034535 0
0.0394492 0.0311518 0
0.0396005 0.0344386 0
0.0454319 0.0313865 0
0.0456775 0.0346427 0
0.0424265 0.0312649 0
0.0426231 0.034535 0
0.0484731 0.0315206 0
0.0487737 0.0347646 0
0.0454319 0.0313865 0
0.0456775 0.0346427 0
0.0515598 0.0316731 0
0.0519234 0.0349054 0
0.0484731 0.0315206 0
0.0487737 0.0347646 0
0.0547044 0.0318518 0
0.0551409 0.0350712 0
0.0515598 0.0316731 0
0.0519234 0.0349054 0
0.0127248 0.0274191 0
0.0123134 0.0309444 0
0.00928767 0.0276016 0
0.00888998 0.0311021 0
0.0159368 0.0272839 0
0.0155886 0.0308081 0
0.0127248 0.0274191 0
0.0123134 0.0309444 0
0.0189741 0.0272324 0
0.0187248 0.0307229 0
0.0159368 0.0272839 0
0.0155886 0.0308081 0
0.021915 0.0272623 0
0.0217617 0.0306956 0
0.0189741 0.0272324 0
0.0187248 0.0307229 0
0.0248143 0.0273421 0
0.024739 0.0307176 0
0.021915 0.0272623 0
0.0217617 0.0306956 0
0.0276976 0.0274497 0
0.0276855 0.0307739 0
0.0248143 0.0273421 0
0.024739 0.0307176 0
0.0305788 0.0275707 0
0.0306192 0.0308523 0
0.0276976 0.0274497 0
0.0276855 0.0307739 0
0.0334661 0.0276972 0
0.0335522 0.0309444 0
0.0305788 0.0275707 0
0.0306192 0.0308523 0
0.0363646 0.0278252 0
0.0364932 0.031045 0
0.0334661 0.0276972 0
0.0335522 0.0309444 0
0.0392785 0.0279534 0
0.0394492 0.0311518 0
0.0363646 0.0278252 0
0.0364932 0.031045 0
0.0422113 0.0280833 0
0.0424265 0.0312649 0
0.0392785 0.0279534 0
0.0394492 0.0311518 0
0.0451674 0.0282181 0
0.0454319 0.0313865 0
0.0422113 0.0280833 0
0.0424265 0.0312649 0
0.048152 0.0283631 0
0.0484731 0.0315206 0
0.0451674 0.0282181 0
0.0454319 0.0313865 0
0.0511722 0.0285256 0
0.0515598 0.0316731 0
0.048152 0.0283631 0
0.0484731 0.0315206 0
0.0542377 0.028715 0
0.0547044 0.0318518 0
0.0511722 0.0285256 0
0.0515598 0.0316731 0
0.0132186 0.0238159 0
0.0127248 0.0274191 0
0.00975502 0.0240085 0
0.00928767 0.0276016 0
0.0163022 0.0237063 0
0.0159368 0.0272839 0
0.0132186 0.0238159 0
0.0127248 0.0274191 0
0.0191886 0.0237613 0
0.0189741 0.0272324 0
0.0163022 0.0237063 0
0.0159368 0.0272839 0
0.0220255 0.0238905 0
0.021915 0.0272623 0
0.0191886 0.0237613 0
0.0189741 0.0272324 0
0.0248485 0.0240507 0
0.0248143 0.0273421 0
0.0220255 0.0238905 0
0.021915 0.0272623 0
0.0276739 0.0242203 0
0.0276976 0.0274497 0
0.0248485 0.0240507 0
0.0248143 0.0273421 0
0.0305083 0.0243887 0
0.0305788 0.0275707 0
0.0276739 0.0242203 0
0.0276976 0.0274497 0
0.0333547 0.0245511 0
0.0334661 0.0276972 0
0.0305083 0.0243887 0
0.0305788 0.0275707 0
0.0362147 0.0247063 0
0.0363646 0.0278252 0
0.0333547 0.0245511 0
0.0334661 0.0276972 0
0.0390893 0.024855 0
0.0392785 0.0279534 0
0.0362147 0.0247063 0
0.0363646 0.0278252 0
0.0419795 0.0250002 0
0.0422113 0.0280833 0
0.0390893 0.024855 0
0.0392785 0.0279534 0
0.0448871 0.0251466 0
0.0451674 0.0282181 0
0.0419795 0.0250002 0
0.0422113 0.0280833 0
0.0478144 0.0253005 0
0.048152 0.0283631 0
0.0448871 0.0251466 0
0.0451674 0.0282181 0
0.0507656 0.0254706 0
0.0511722 0.0285256 0
0.0478144 0.0253005 0
0.048152 0.0283631 0
0.053747 0.0256681 0
0.0542377 0.028715 0
0.0507656 0.0254706 0
0.0511722 0.0285256 0
0.0138111 0.0199729 0
0.0132186 0.0238159 0
0.010424 0.0202842 0
0.00975502 0.0240085 0
0.0165753 0.0201278 0
0.0163022 0.0237063 0
0.0138111 0.0199729 0
0.0132186 0.0238159 0
0.0193225 0.0203758 0
0.0191886 0.0237613 0
0.0165753 0.0201278 0
0.0163022 0.0237063 0
0.0220685 0.0206348 0
0.0220255 0.0238905 0
0.0193225 0.0203758 0
0.0191886 0.0237613 0
0.0248304 0.0208834 0
0.0248485 0.0240507 0
0.0220685 0.0206348 0
0.0220255 0.0238905 0
0.0276097 0.021115 0
0.0276739 0.0242203 0
0.0248304 0.0208834 0
0.0248485 0.0240507 0
0.0304062 0.0213278 0
0.0305083 0.0243887 0
0.0276097 0.021115 0
0.0276739 0.0242203 0
0.0332185 0.0215225 0
0.0333547 0.0245511 0
0.0304062 0.0213278 0
0.0305083 0.0243887 0
0.0360451 0.0217011 0
0.0362147 0.0247063 0
0.0332185 0.0215225 0
0.0333547 0.0245511 0
0.0388842 0.021867 0
0.0390893 0.024855 0
0.0360451 0.0217011 0
0.0362147 0.0247063 0
0.0417345 0.0220245 0
0.0419795 0.0250002 0
0.0388842 0.021867 0
0.0390893 0.024855 0
0.044595 0.0221795 0
0.0448871 0.0251466 0
0.0417345 0.0220245 0
0.0419795 0.0250002 0
0.0474654 0.0223397 0
0.0478144 0.0253005 0
0.044595 0.0221795 0
0.0448871 0.0251466 0
0.0503464 0.0225146 0
0.0507656 0.0254706 0
0.0474654 0.0223397 0
0.0478144 0.0253005 0
0.0532403 0.0227168 0
0.053747 0.0256681 0
0.0503464 0.0225146 0
0.0507656 0.0254706 0
0.0140628 0.0161996 0
0.0138111 0.0199729 0
0.0116545 0.0154704 0
0.010424 0.0202842 0
0.0166954 0.0167647 0
0.0165753 0.0201278 0
0.0140628 0.0161996 0
0.0138111 0.0199729 0
0.0193479 0.0172008 0
0.0193225 0.0203758 0
0.0166954 0.0167647 0
0.0165753 0.0201278 0
0.0220399 0.017568 0
0.0220685 0.0206348 0
0.0193479 0.0172008 0
0.0193225 0.0203758 0
0.0247614 0.0178853 0
0.0248304 0.0208834 0
0.0220399 0.017568 0
0.0220685 0.0206348 0
0.0275085 0.018163 0
0.0276097 0.021115 0
0.0247614 0.0178853 0
0.0248304 0.0208834 0
0.0302767 0.018408 0
0.0304062 0.0213278 0
0.0275085 0.018163 0
0.0276097 0.021115 0
0.0330618 0.0186254 0
0.0332185 0.0215225 0
0.0302767 0.018408 0
0.0304062 0.0213278 0
0.03586 0.0188201 0
0.0360451 0.0217011 0
0.0330618 0.0186254 0
0.0332185 0.0215225 0
0.0386676 0.0189972 0
0.0388842 0.021867 0
0.03586 0.0188201 0
0.0360451 0.0217011 0
0.0414808 0.0191624 0
0.0417345 0.0220245 0
0.0386676 0.0189972 0
0.0388842 0.021867 0
0.0442963 0.0193223 0
0.044595 0.0221795 0
0.0414808 0.0191624 0
0.0417345 0.0220245 0
0.0471108 0.0194854 0
0.0474654 0.0223397 0
0.0442963 0.0193223 0
0.044595 0.0221795 0
0.0499216 0.0196618 0
0.0503464 0.0225146 0
0.0471108 0.0194854 0
0.0474654 0.0223397 0
0.0527265 0.0198649 0
0.0532403 0.0227168 0
0.0499216 0.0196618 0
0.0503464 0.0225146 0
0.0141825 0.0133487 0
0.0140628 0.0161996 0
0.0120239 0.0127931 0
0.0116545 0.0154704 0
0.0166941 0.0138795 0
0.0166954 0.0167647 0
0.0141825 0.0133487 0
0.0140628 0.0161996 0
0.0193044 0.0143492 0
0.0193479 0.0172008 0
0.0166941 0.0138795 0
0.0166954 0.0167647 0
0.0219626 0.0147476 0
0.0220399 0.017568 0
0.0193044 0.0143492 0
0.0193479 0.0172008 0
0.0246582 0.0150893 0
0.0247614 0.0178853 0
0.0219626 0.0147476 0
0.0220399 0.017568 0
0.0273825 0.0153849 0
0.0275085 0.018163 0