# vtk DataFile Version 3.0
#This file was generated by the deal.II library on 2021/1/5 at 13:55:19
ASCII
DATASET UNSTRUCTURED_GRID

POINTS 2700 double
0.0322581 0.516129 0
0 0.516129 0
0.0322581 0.483871 0
0 0.483871 0
0.0322581 0.548387 0
0 0.548387 0
0.0322581 0.516129 0
0 0.516129 0
0.0322581 0.580645 0
0 0.580645 0
0.0322581 0.548387 0
0 0.548387 0
0.0322581 0.612903 0
0 0.612903 0
0.0322581 0.580645 0
0 0.580645 0
0.0322581 0.645161 0
0 0.645161 0
0.0322581 0.612903 0
0 0.612903 0
0.0322581 0.677419 0
0 0.677419 0
0.0322581 0.645161 0
0 0.645161 0
0.0322581 0.709677 0
0 0.709677 0
0.0322581 0.677419 0
0 0.677419 0
0.0322581 0.741935 0
0 0.741935 0
0.0322581 0.709677 0
0 0.709677 0
0.0322581 0.774193 0
0 0.774193 0
0.0322581 0.741935 0
0 0.741935 0
0.0322581 0.806452 0
0 0.806452 0
0.0322581 0.774193 0
0 0.774193 0
0.0322581 0.83871 0
0 0.83871 0
0.0322581 0.806452 0
0 0.806452 0
0.0322581 0.870968 0
0 0.870968 0
0.0322581 0.83871 0
0 0.83871 0
0.0322581 0.903226 0
0 0.903226 0
0.0322581 0.870968 0
0 0.870968 0
0.0322581 0.935484 0
0 0.935484 0
0.0322581 0.903226 0
0 0.903226 0
0.0322581 0.967742 0
0 0.967742 0
0.0322581 0.935484 0
0 0.935484 0
0.0645161 0.516129 0
0.0322581 0.516129 0
0.0645161 0.483871 0
0.0322581 0.483871 0
0.0645161 0.548387 0
0.0322581 0.548387 0
0.0645161 0.516129 0
0.0322581 0.516129 0
0.0645161 0.580645 0
0.0322581 0.580645 0
0.0645161 0.548387 0
0.0322581 0.548387 0
0.0645161 0.612903 0
0.0322581 0.612903 0
0.0645161 0.580645 0
0.0322581 0.580645 0
0.0645161 0.645161 0
0.0322581 0.645161 0
0.0645161 0.612903 0
0.0322581 0.612903 0
0.0645161 0.677419 0
0.0322581 0.677419 0
0.0645161 0.645161 0
0.0322581 0.645161 0
0.0645161 0.709677 0
0.0322581 0.709677 0
0.0645161 0.677419 0
0.0322581 0.677419 0
0.0645161 0.741935 0
0.0322581 0.741935 0
0.0645161 0.709677 0
0.0322581 0.709677 0
0.0645161 0.774193 0
0.0322581 0.774193 0
0.0645161 0.741935 0
0.0322581 0.741935 0
0.0645161 0.806452 0
0.0322581 0.806452 0
0.0645161 0.774193 0
0.0322581 0.774193 0
0.0645161 0.83871 0
0.0322581 0.83871 0
0.0645161 0.806452 0
0.0322581 0.806452 0
0.0645161 0.870968 0
0.0322581 0.870968 0
0.0645161 0.83871 0
0.0322581 0.83871 0
0.0645161 0.903226 0
0.0322581 0.903226 0
0.0645161 0.870968 0
0.0322581 0.870968 0
0.0645161 0.935484 0
0.0322581 0.935484 0
0.0645161 0.903226 0
0.0322581 0.903226 0
0.0645161 0.967742 0
0.0322581 0.967742 0
0.0645161 0.935484 0
0.0322581 0.935484 0
0.0967742 0.516129 0
0.0645161 0.516129 0
0.0967742 0.483871 0
0.0645161 0.483871 0
0.0967742 0.548387 0
0.0645161 0.548387 0
0.0967742 0.516129 0
0.0645161 0.516129 0
0.0967742 0.580645 0
0.0645161 0.580645 0
0.0967742 0.548387 0
0.0645161 0.548387 0
0.0967742 0.612903 0
0.0645161 0.612903 0
0.0967742 0.580645 0
0.0645161 0.580645 0
0.0967742 0.645161 0
0.0645161 0.645161 0
0.0967742 0.612903 0
0.0645161 0.612903 0
0.0967742 0.677419 0
0.0645161 0.677419 0
0.0967742 0.645161 0
0.0645161 0.645161 0
0.0967742 0.709677 0
0.0645161 0.709677 0
0.0967742 0.677419 0
0.0645161 0.677419 0
0.0967742 0.741935 0
0.0645161 0.741935 0
0.0967742 0.709677 0
0.0645161 0.709677 0
0.0967742 0.774193 0
0.0645161 0.774193 0
0.0967742 0.741935 0
0.0645161 0.741935 0
0.0967742 0.806452 0
0.0645161 0.806452 0
0.0967742 0.774193 0
0.0645161 0.774193 0
0.0967742 0.83871 0
0.0645161 0.83871 0
0.0967742 0.806452 0
0.0645161 0.806452 0
0.0967742 0.870968 0
0.0645161 0.870968 0
0.0967742 0.83871 0
0.0645161 0.83871 0
0.0967742 0.903226 0
0.0645161 0.903226 0
0.0967742 0.870968 0
0.0645161 0.870968 0
0.0967742 0.935484 0
0.0645161 0.935484 0
0.0967742 0.903226 0
0.0645161 0.903226 0
0.0967742 0.967742 0
0.0645161 0.967742 0
0.0967742 0.935484 0
0.0645161 0.935484 0
0.129032 0.516129 0
0.0967742 0.516129 0
0.129032 0.483871 0
0.0967742 0.483871 0
0.129032 0.548387 0
0.0967742 0.548387 0
0.129032 0.516129 0
0.0967742 0.516129 0
0.129032 0.580645 0
0.0967742 0.580645 0
0.129032 0.548387 0
0.0967742 0.548387 0
0.129032 0.612903 0
0.0967742 0.612903 0
0.129032 0.580645 0
0.0967742 0.580645 0
0.129032 0.645161 0
0.0967742 0.645161 0
0.129032 0.612903 0
0.0967742 0.612903 0
0.129032 0.677419 0
0.0967742 0.677419 0
0.129032 0.645161 0
0.0967742 0.645161 0
0.129032 0.709677 0
0.0967742 0.709677 0
0.129032 0.677419 0
0.0967742 0.677419 0
0.129032 0.741935 0
0.0967742 0.741935 0
0.129032 0.709677 0
0.0967742 0.709677 0
0.129032 0.774193 0
0.0967742 0.774193 0
0.129032 0.741935 0
0.0967742 0.741935 0
0.129032 0.806452 0
0.0967742 0.806452 0
0.129032 0.774193 0
0.0967742 0.774193 0
0.129032 0.83871 0
0.0967742 0.83871 0
0.129032 0.806452 0
0.0967742 0.806452 0
0.129032 0.870968 0
0.0967742 0.870968 0
0.129032 0.83871 0
0.0967742 0.83871 0
0.129032 0.903226 0
0.0967742 0.903226 0
0.129032 0.870968 0
0.0967742 0.870968 0
0.129032 0.935484 0
0.0967742 0.935484 0
0.129032 0.903226 0
0.0967742 0.903226 0
0.129032 0.967742 0
0.0967742 0.967742 0
0.129032 0.935484 0
0.0967742 0.935484 0
0.16129 0.516129 0
0.129032 0.516129 0
0.16129 0.483871 0
0.129032 0.483871 0
0.16129 0.548387 0
0.129032 0.548387 0
0.16129 0.516129 0
0.129032 0.516129 0
0.16129 0.580645 0
0.129032 0.580645 0
0.16129 0.548387 0
0.129032 0.548387 0
0.16129 0.612903 0
0.129032 0.612903 0
0.16129 0.580645 0
0.129032 0.580645 0
0.16129 0.645161 0
0.129032 0.645161 0
0.16129 0.612903 0
0.129032 0.612903 0
0.16129 0.677419 0
0.129032 0.677419 0
0.16129 0.645161 0
0.129032 0.645161 0
0.16129 0.709677 0
0.129032 0.709677 0
0.16129 0.677419 0
0.129032 0.677419 0
0.16129 0.741935 0
0.129032 0.741935 0
0.16129 0.709677 0
0.129032 0.709677 0
0.16129 0.774193 0
0.129032 0.774193 0
0.16129 0.741935 0
0.129032 0.741935 0
0.16129 0.806452 0
0.129032 0.806452 0
0.16129 0.774193 0
0.129032 0.774193 0
0.16129 0.83871 0
0.129032 0.83871 0
0.16129 0.806452 0
0.129032 0.806452 0
0.16129 0.870968 0
0.129032 0.870968 0
0.16129 0.83871 0
0.129032 0.83871 0
0.16129 0.903226 0
0.129032 0.903226 0
0.16129 0.870968 0
0.129032 0.870968 0
0.16129 0.935484 0
0.129032 0.935484 0
0.16129 0.903226 0
0.129032 0.903226 0
0.16129 0.967742 0
0.129032 0.967742 0
0.16129 0.935484 0
0.129032 0.935484 0
0.193548 0.516129 0
0.16129 0.516129 0
0.193548 0.483871 0
0.16129 0.483871 0
0.193548 0.548387 0
0.16129 0.548387 0
0.193548 0.516129 0
0.16129 0.516129 0
0.193548 0.580645 0
0.16129 0.580645 0
0.193548 0.548387 0
0.16129 0.548387 0
0.193548 0.612903 0
0.16129 0.612903 0
0.193548 0.580645 0
0.16129 0.580645 0
0.193548 0.645161 0
0.16129 0.645161 0
0.193548 0.612903 0
0.16129 0.612903 0
0.193548 0.677419 0
0.16129 0.677419 0
0.193548 0.645161 0
0.16129 0.645161 0
0.193548 0.709677 0
0.16129 0.709677 0
0.193548 0.677419 0
0.16129 0.677419 0
0.193548 0.741935 0
0.16129 0.741935 0
0.193548 0.709677 0
0.16129 0.709677 0
0.193548 0.774193 0
0.16129 0.774193 0
0.193548 0.741935 0
0.16129 0.741935 0
0.193548 0.806452 0
0.16129 0.806452 0
0.193548 0.774193 0
0.16129 0.774193 0
0.193548 0.83871 0
0.16129 0.83871 0
0.193548 0.806452 0
0.16129 0.806452 0
0.193548 0.870968 0
0.16129 0.870968 0
0.193548 0.83871 0
0.16129 0.83871 0
0.193548 0.903226 0
0.16129 0.903226 0
0.193548 0.870968 0
0.16129 0.870968 0
0.193548 0.935484 0
0.16129 0.935484 0
0.193548 0.903226 0
0.16129 0.903226 0
0.193548 0.967742 0
0.16129 0.967742 0
0.193548 0.935484 0
0.16129 0.935484 0
0.225806 0.516129 0
0.193548 0.516129 0
0.225806 0.483871 0
0.193548 0.483871 0
0.225806 0.548387 0
0.193548 0.548387 0
0.225806 0.516129 0
0.193548 0.516129 0
0.225806 0.580645 0
0.193548 0.580645 0
0.225806 0.548387 0
0.193548 0.548387 0
0.225806 0.612903 0
0.193548 0.612903 0
0.225806 0.580645 0
0.193548 0.580645 0
0.225806 0.645161 0
0.193548 0.645161 0
0.225806 0.612903 0
0.193548 0.612903 0
0.225806 0.677419 0
0.193548 0.677419 0
0.225806 0.645161 0
0.193548 0.645161 0
0.225806 0.709677 0
0.193548 0.709677 0
0.225806 0.677419 0
0.193548 0.677419 0
0.225806 0.741935 0
0.193548 0.741935 0
0.225806 0.709677 0
0.193548 0.709677 0
0.225806 0.774193 0
0.193548 0.774193 0
0.225806 0.741935 0
0.193548 0.741935 0
0.225806 0.806452 0
0.193548 0.806452 0
0.225806 0.774193 0
0.193548 0.774193 0
0.225806 0.83871 0
0.193548 0.83871 0
0.225806 0.806452 0
0.193548 0.806452 0
0.225806 0.870968 0
0.193548 0.870968 0
0.225806 0.83871 0
0.193548 0.83871 0
0.225806 0.903226 0
0.193548 0.903226 0
0.225806 0.870968 0
0.193548 0.870968 0
0.225806 0.935484 0
0.193548 0.935484 0
0.225806 0.903226 0
0.193548 0.903226 0
0.225806 0.967742 0
0.193548 0.967742 0
0.225806 0.935484 0
0.193548 0.935484 0
0.258064 0.516129 0
0.225806 0.516129 0
0.258064 0.483871 0
0.225806 0.483871 0
0.258064 0.548387 0
0.225806 0.548387 0
0.258064 0.516129 0
0.225806 0.516129 0
0.258064 0.580645 0
0.225806 0.580645 0
0.258064 0.548387 0
0.225806 0.548387 0
0.258064 0.612903 0
0.225806 0.612903 0
0.258064 0.580645 0
0.225806 0.580645 0
0.258064 0.645161 0
0.225806 0.645161 0
0.258064 0.612903 0
0.225806 0.612903 0
0.258064 0.677419 0
0.225806 0.677419 0
0.258064 0.645161 0
0.225806 0.645161 0
0.258064 0.709677 0
0.225806 0.709677 0
0.258064 0.677419 0
0.225806 0.677419 0
0.258064 0.741935 0
0.225806 0.741935 0
0.258064 0.709677 0
0.225806 0.709677 0
0.258064 0.774193 0
0.225806 0.774193 0
0.258064 0.741935 0
0.225806 0.741935 0
0.258064 0.806452 0
0.225806 0.806452 0
0.258064 0.774193 0
0.225806 0.774193 0
0.258064 0.83871 0
0.225806 0.83871 0
0.258064 0.806452 0
0.225806 0.806452 0
0.258064 0.870968 0
0.225806 0.870968 0
0.258064 0.83871 0
0.225806 0.83871 0
0.258064 0.903226 0
0.225806 0.903226 0
0.258064 0.870968 0
0.225806 0.870968 0
0.258064 0.935484 0
0.225806 0.935484 0
0.258064 0.903226 0
0.225806 0.903226 0
0.258064 0.967742 0
0.225806 0.967742 0
0.258064 0.935484 0
0.225806 0.935484 0
0.290323 0.516129 0
0.258064 0.516129 0
0.290323 0.483871 0
0.258064 0.483871 0
0.290323 0.548387 0
0.258064 0.548387 0
0.290323 0.516129 0
0.258064 0.516129 0
0.290323 0.580645 0
0.258064 0.580645 0
0.290323 0.548387 0
0.258064 0.548387 0
0.290323 0.612903 0
0.258064 0.612903 0
0.290323 0.580645 0
0.258064 0.580645 0
0.290323 0.645161 0
0.258064 0.645161 0
[...]
POINT_DATA 2700
VECTORS u double
0.00148653 0.00948392 0
0.00148429 0.01 0
0.000978653 0.00948597 0
0.000976121 0.01 0
0.00198356 0.0094821 0
0.0019816 0.01 0
0.00148653 0.00948392 0
0.00148429 0.01 0
0.00247114 0.0094805 0
0.00246946 0.01 0
0.00198356 0.0094821 0
0.0019816 0.01 0
0.00295068 0.00947913 0
0.0029493 0.01 0
0.00247114 0.0094805 0
0.00246946 0.01 0
0.00342367 0.00947802 0
0.00342261 0.01 0
0.00295068 0.00947913 0
0.0029493 0.01 0
0.00389166 0.0094772 0
0.00389095 0.01 0
0.00342367 0.00947802 0
0.00342261 0.01 0
0.00435632 0.00947669 0
0.00435596 0.01 0
0.00389166 0.0094772 0
0.00389095 0.01 0
0.00481938 0.0094765 0
0.00481941 0.01 0
0.00435632 0.00947669 0
0.00435596 0.01 0
0.0052827 0.00947666 0
0.00528312 0.01 0
0.00481938 0.0094765 0
0.00481941 0.01 0
0.00574817 0.00947716 0
0.00574901 0.01 0
0.0052827 0.00947666 0
0.00528312 0.01 0
0.00621779 0.00947804 0
0.00621906 0.01 0
0.00574817 0.00947716 0
0.00574901 0.01 0
0.00669362 0.00947928 0
0.00669532 0.01 0
0.00621779 0.00947804 0
0.00621906 0.01 0
0.00717775 0.00948091 0
0.00717989 0.01 0
0.00669362 0.00947928 0
0.00669532 0.01 0
0.00767234 0.00948293 0
0.00767494 0.01 0
0.00717775 0.00948091 0
0.00717989 0.01 0
0.00817957 0.00948535 0
0.00818262 0.01 0
0.00767234 0.00948293 0
0.00767494 0.01 0
0.00149324 0.00896846 0
0.00148653 0.00948392 0
0.000986235 0.00897255 0
0.000978653 0.00948597 0
0.00198944 0.00896482 0
0.00198356 0.0094821 0
0.00149324 0.00896846 0
0.00148653 0.00948392 0
0.00247618 0.00896162 0
0.00247114 0.0094805 0
0.00198944 0.00896482 0
0.00198356 0.0094821 0
0.00295482 0.0089589 0
0.00295068 0.00947913 0
0.00247618 0.00896162 0
0.00247114 0.0094805 0
0.00342685 0.0089567 0
0.00342367 0.00947802 0
0.00295482 0.0089589 0
0.00295068 0.00947913 0
0.00389381 0.00895508 0
0.00389166 0.0094772 0
0.00342685 0.0089567 0
0.00342367 0.00947802 0
0.00435737 0.00895409 0
0.00435632 0.00947669 0
0.00389381 0.00895508 0
0.00389166 0.0094772 0
0.00481929 0.00895376 0
0.00481938 0.0094765 0
0.00435737 0.00895409 0
0.00435632 0.00947669 0
0.00528141 0.0089541 0
0.0052827 0.00947666 0
0.00481929 0.00895376 0
0.00481938 0.0094765 0
0.00574565 0.00895515 0
0.00574817 0.00947716 0
0.00528141 0.0089541 0
0.0052827 0.00947666 0
0.006214 0.00895692 0
0.00621779 0.00947804 0
0.00574565 0.00895515 0
0.00574817 0.00947716 0
0.00668852 0.00895942 0
0.00669362 0.00947928 0
0.006214 0.00895692 0
0.00621779 0.00947804 0
0.00717131 0.00896269 0
0.00717775 0.00948091 0
0.00668852 0.00895942 0
0.00669362 0.00947928 0
0.00766454 0.00896675 0
0.00767234 0.00948293 0
0.00717131 0.00896269 0
0.00717775 0.00948091 0
0.00817042 0.00897159 0
0.00817957 0.00948535 0
0.00766454 0.00896675 0
0.00767234 0.00948293 0
0.00150441 0.00845422 0
0.00149324 0.00896846 0
0.000998823 0.00846033 0
0.000986235 0.00897255 0
0.00199925 0.00844877 0
0.00198944 0.00896482 0
0.00150441 0.00845422 0
0.00149324 0.00896846 0
0.00248459 0.00844399 0
0.00247618 0.00896162 0
0.00199925 0.00844877 0
0.00198944 0.00896482 0
0.00296173 0.00843993 0
0.00295482 0.0089589 0
0.00248459 0.00844399 0
0.00247618 0.00896162 0
0.00343214 0.00843668 0
0.00342685 0.0089567 0
0.00296173 0.00843993 0
0.00295482 0.0089589 0
0.00389737 0.00843432 0
0.00389381 0.00895508 0
0.00343214 0.00843668 0
0.00342685 0.0089567 0
0.00435909 0.00843293 0
0.00435737 0.00895409 0
0.00389737 0.00843432 0
0.00389381 0.00895508 0
0.0048191 0.00843252 0
0.00481929 0.00895376 0
0.00435909 0.00843293 0
0.00435737 0.00895409 0
0.00527923 0.00843314 0
0.00528141 0.0089541 0
0.0048191 0.00843252 0
0.00481929 0.00895376 0
0.00574143 0.0084348 0
0.00574565 0.00895515 0
0.00527923 0.00843314 0
0.00528141 0.0089541 0
0.00620767 0.00843751 0
0.006214 0.00895692 0
0.00574143 0.0084348 0
0.00574565 0.00895515 0
0.00668001 0.00844132 0
0.00668852 0.00895942 0
0.00620767 0.00843751 0
0.006214 0.00895692 0
0.00716057 0.00844624 0
0.00717131 0.00896269 0
0.00668001 0.00844132 0
0.00668852 0.00895942 0
0.00765154 0.00845233 0
0.00766454 0.00896675 0
0.00716057 0.00844624 0
0.00717131 0.00896269 0
0.00815515 0.0084596 0
0.00817042 0.00897159 0
0.00765154 0.00845233 0
0.00766454 0.00896675 0
0.00152002 0.00794176 0
0.00150441 0.00845422 0
0.00101634 0.00794987 0
0.000998823 0.00846033 0
0.002013 0.00793451 0
0.00199925 0.00844877 0
0.00152002 0.00794176 0
0.00150441 0.00845422 0
0.00249638 0.00792815 0
0.00248459 0.00844399 0
0.002013 0.00793451 0
0.00199925 0.00844877 0
0.00297142 0.0079228 0
0.00296173 0.00843993 0
0.00249638 0.00792815 0
0.00248459 0.00844399 0
0.00343953 0.00791857 0
0.00343214 0.00843668 0
0.00297142 0.0079228 0
0.00296173 0.00843993 0
0.0039023 0.00791558 0
0.00389737 0.00843432 0
0.00343953 0.00791857 0
0.00343214 0.00843668 0
0.00436143 0.00791391 0
0.00435909 0.00843293 0
0.0039023 0.00791558 0
0.00389737 0.00843432 0
0.00481875 0.00791358 0
0.0048191 0.00843252 0
0.00436143 0.00791391 0
0.00435909 0.00843293 0
0.00527611 0.0079146 0
0.00527923 0.00843314 0
0.00481875 0.00791358 0
0.0048191 0.00843252 0
0.00573546 0.00791697 0
0.00574143 0.0084348 0
0.00527611 0.0079146 0
0.00527923 0.00843314 0
0.00619878 0.00792072 0
0.00620767 0.00843751 0
0.00573546 0.00791697 0
0.00574143 0.0084348 0
0.0066681 0.00792587 0
0.00668001 0.00844132 0
0.00619878 0.00792072 0
0.00620767 0.00843751 0
0.00714555 0.00793248 0
0.00716057 0.00844624 0
0.0066681 0.00792587 0
0.00668001 0.00844132 0
0.00763333 0.00794062 0
0.00765154 0.00845233 0
0.00714555 0.00793248 0
0.00716057 0.00844624 0
0.00813373 0.00795033 0
0.00815515 0.0084596 0
0.00763333 0.00794062 0
0.00765154 0.00845233 0
0.00154005 0.00743155 0
0.00152002 0.00794176 0
0.0010387 0.00744163 0
0.00101634 0.00794987 0
0.0020307 0.00742251 0
0.002013 0.00793451 0
0.00154005 0.00743155 0
0.00152002 0.00794176 0
0.00251159 0.00741461 0
0.00249638 0.00792815 0
0.0020307 0.00742251 0
0.002013 0.00793451 0
0.00298387 0.00740802 0
0.00297142 0.0079228 0
0.00251159 0.00741461 0
0.00249638 0.00792815 0
0.00344897 0.00740294 0
0.00343953 0.00791857 0
0.00298387 0.00740802 0
0.00297142 0.0079228 0
0.00390852 0.0073995 0
0.0039023 0.00791558 0
0.00344897 0.00740294 0
0.00343953 0.00791857 0
0.00436429 0.00739775 0
0.00436143 0.00791391 0
0.00390852 0.0073995 0
0.0039023 0.00791558 0
0.00481814 0.0073977 0
0.00481875 0.00791358 0
0.00436429 0.00739775 0
0.00436143 0.00791391 0
0.00527196 0.00739932 0
0.00527611 0.0079146 0
0.00481814 0.0073977 0
0.00481875 0.00791358 0
0.00572769 0.00740259 0
0.00573546 0.00791697 0
0.00527196 0.00739932 0
0.00527611 0.0079146 0
0.00618728 0.00740748 0
0.00619878 0.00792072 0
0.00572769 0.00740259 0
0.00573546 0.00791697 0
0.00665277 0.00741406 0
0.0066681 0.00792587 0
0.00618728 0.00740748 0
0.00619878 0.00792072 0
0.00712624 0.00742239 0
0.00714555 0.00793248 0
0.00665277 0.00741406 0
0.0066681 0.00792587 0
0.00760991 0.00743259 0
0.00763333 0.00794062 0
0.00712624 0.00742239 0
0.00714555 0.00793248 0
0.00810614 0.00744474 0
0.00813373 0.00795033 0
0.00760991 0.00743259 0
0.00763333 0.00794062 0
0.00156449 0.00692397 0
0.00154005 0.00743155 0
0.00106579 0.006936 0
0.0010387 0.00744163 0
0.00205241 0.00691315 0
0.0020307 0.00742251 0
0.00156449 0.00692397 0
0.00154005 0.00743155 0
0.00253024 0.00690374 0
0.00251159 0.00741461 0
0.00205241 0.00691315 0
0.0020307 0.00742251 0
0.00299908 0.00689604 0
0.00298387 0.00740802 0
0.00253024 0.00690374 0
0.00251159 0.00741461 0
0.0034604 0.00689031 0
0.00344897 0.00740294 0
0.00299908 0.00689604 0
0.00298387 0.00740802 0
0.00391591 0.00688668 0
0.00390852 0.0073995 0
0.0034604 0.00689031 0
0.00344897 0.00740294 0
0.00436751 0.00688518 0
0.00436429 0.00739775 0
0.00391591 0.00688668 0
0.00390852 0.0073995 0
0.00481711 0.00688573 0
0.00481814 0.0073977 0
0.00436751 0.00688518 0
0.00436429 0.00739775 0
0.00526664 0.00688823 0
0.00527196 0.00739932 0
0.00481711 0.00688573 0
0.00481814 0.0073977 0
0.00571802 0.00689261 0
0.00572769 0.00740259 0
0.00526664 0.00688823 0
0.00527196 0.00739932 0
0.00617315 0.00689882 0
0.00618728 0.00740748 0
0.00571802 0.00689261 0
0.00572769 0.00740259 0
0.00663402 0.00690692 0
0.00665277 0.00741406 0
0.00617315 0.00689882 0
0.00618728 0.00740748 0
0.00710268 0.00691702 0
0.00712624 0.00742239 0
0.00663402 0.00690692 0
0.00665277 0.00741406 0
0.00758133 0.00692927 0
0.00760991 0.00743259 0
0.00710268 0.00691702 0
0.00712624 0.00742239 0
0.00807236 0.00694386 0
0.00810614 0.00744474 0
0.00758133 0.00692927 0
0.00760991 0.00743259 0
0.00159338 0.00641922 0
0.00156449 0.00692397 0
0.00109748 0.00643317 0
0.00106579 0.006936 0
0.00207822 0.00640661 0
0.00205241 0.00691315 0
0.00159338 0.00641922 0
0.00156449 0.00692397 0
0.0025524 0.00639577 0
0.00253024 0.00690374 0
0.00207822 0.00640661 0
0.00205241 0.00691315 0
0.003017 0.00638716 0
0.00299908 0.00689604 0
0.0025524 0.00639577 0
0.00253024 0.00690374 0
0.00347363 0.00638112 0
0.0034604 0.00689031 0
0.003017 0.00638716 0
0.00299908 0.00689604 0
0.00392423 0.00637775 0
0.00391591 0.00688668 0
0.00347363 0.00638112 0
0.0034604 0.00689031 0
0.00437082 0.00637696 0
0.00436751 0.00688518 0
0.00392423 0.00637775 0
0.00391591 0.00688668 0
0.00481542 0.00637855 0
0.00481711 0.00688573 0
0.00437082 0.00637696 0
0.00436751 0.00688518 0
0.00525996 0.00638232 0
0.00526664 0.00688823 0
0.00481542 0.00637855 0
0.00481711 0.00688573 0
0.00570631 0.0063881 0
0.00571802 0.00689261 0
0.00525996 0.00638232 0
0.00526664 0.00688823 0
0.00615632 0.00639584 0
0.00617315 0.00689882 0
0.00570631 0.0063881 0
0.00571802 0.00689261 0
0.00661186 0.00640558 0
0.00663402 0.00690692 0
0.00615632 0.00639584 0
0.00617315 0.00689882 0
0.00707492 0.00641748 0
0.00710268 0.00691702 0
0.00661186 0.00640558 0
0.00663402 0.00690692 0
0.00754764 0.00643178 0
0.00758133 0.00692927 0
0.00707492 0.00641748 0
0.00710268 0.00691702 0
0.00803243 0.00644878 0
0.00807236 0.00694386 0
0.00754764 0.00643178 0
0.00758133 0.00692927 0
0.00162684 0.00591725 0
0.00159338 0.00641922 0
0.00113369 0.00593315 0
0.00109748 0.00643317 0
0.00210827 0.00590286 0
0.00207822 0.00640661 0
0.00162684 0.00591725 0
0.00159338 0.00641922 0
0.00257809 0.00589073 0
0.0025524 0.00639577 0
0.00210827 0.00590286 0
0.00207822 0.00640661 0
0.00303747 0.00588158 0
0.003017 0.00638716 0
0.00257809 0.00589073 0
0.0025524 0.00639577 0
0.00348838 0.0058758 0
0.00347363 0.00638112 0
0.00303747 0.00588158 0
0.003017 0.00638716 0
0.00393307 0.00587334 0
0.00392423 0.00637775 0
0.00348838 0.0058758 0
0.00347363 0.00638112 0
0.00437381 0.00587392 0
0.00437082 0.00637696 0
0.00393307 0.00587334 0
0.00392423 0.00637775 0
0.0048127 0.00587716 0
0.00481542 0.00637855 0
0.00437381 0.00587392 0
0.00437082 0.00637696 0
0.00525163 0.00588268 0
0.00525996 0.00638232 0
0.0048127 0.00587716 0
0.00481542 0.00637855 0
0.0056924 0.00589024 0
0.00570631 0.0063881 0
0.00525163 0.00588268 0
0.00525996 0.00638232 0
0.00613672 0.00589974 0
0.00615632 0.00639584 0
0.0056924 0.00589024 0
0.00570631 0.0063881 0
0.00658631 0.00591126 0
0.00661186 0.00640558 0
0.00613672 0.00589974 0
0.00615632 0.00639584 0
0.00704305 0.005925 0
0.00707492 0.00641748 0
0.00658631 0.00591126 0
0.00661186 0.00640558 0
0.00750897 0.00594132 0
0.00754764 0.00643178 0
0.00704305 0.005925 0
0.00707492 0.00641748 0
0.00798645 0.00596066 0
0.00803243 0.00644878 0
0.00750897 0.00594132 0
0.00754764 0.00643178 0
0.00166514 0.00541767 0
0.00162684 0.00591725 0
0.00117438 0.00543557 0
0.00113369 0.00593315 0
0.00214284 0.00540147 0
0.00210827 0.00590286 0
0.00166514 0.00541767 0
0.00162684 0.00591725 0
0.0026073 0.00538835 0
0.00257809 0.00589073 0
0.00214284 0.00540147 0
0.00210827 0.00590286 0
0.00306018 0.00537934 0
0.00303747 0.00588158 0
0.0026073 0.00538835 0
0.00257809 0.00589073 0
0.0035041 0.00537473 0
0.00348838 0.0058758 0
0.00306018 0.00537934 0
0.00303747 0.00588158 0
0.00394184 0.00537419 0
0.00393307 0.00587334 0
0.0035041 0.00537473 0
0.00348838 0.0058758 0
0.00437592 0.00537708 0
0.00437381 0.00587392 0
0.00394184 0.00537419 0
0.00393307 0.00587334 0
0.00480848 0.00538272 0
0.0048127 0.00587716 0
0.00437592 0.00537708 0
0.00437381 0.00587392 0
0.00524134 0.00539058 0
0.00525163 0.00588268 0
0.00480848 0.00538272 0
0.0048127 0.00587716 0
0.0056761 0.00540032 0
0.0056924 0.00589024 0
0.00524134 0.00539058 0
0.00525163 0.00588268 0
0.00611429 0.00541185 0
0.00613672 0.00589974 0
0.0056761 0.00540032 0
0.0056924 0.00589024 0
0.00655744 0.00542525 0
0.00658631 0.00591126 0
0.00611429 0.00541185 0
0.00613672 0.00589974 0
0.00700722 0.00544084 0
0.00704305 0.005925 0
0.00655744 0.00542525 0
0.00658631 0.00591126 0
0.00746553 0.00545912 0
0.00750897 0.00594132 0
0.00700722 0.00544084 0
0.00704305 0.005925 0
0.00793462 0.00548071 0
0.00798645 0.00596066 0
0.00746553 0.00545912 0
0.00750897 0.00594132 0
0.00170885 0.00491946 0
0.00166514 0.00541767 0
0.00121967 0.00493954 0
0.00117438 0.00543557 0
0.00218227 0.00490151 0
0.00214284 0.00540147 0
0.00170885 0.00491946 0
0.00166514 0.00541767 0
0.00263985 0.00488806 0
0.0026073 0.00538835 0
0.00218227 0.00490151 0
0.00214284 0.00540147 0
0.00308443 0.00488044 0
0.00306018 0.00537934 0
0.00263985 0.00488806 0
0.0026073 0.00538835 0
0.00351985 0.00487852 0
0.0035041 0.00537473 0
0.00308443 0.00488044 0
0.00306018 0.00537934 0
0.00394959 0.00488133 0
0.00394184 0.00537419 0
0.00351985 0.00487852 0
0.0035041 0.00537473 0
0.00437635 0.00488769 0
0.00437592 0.00537708 0
0.00394959 0.00488133 0
0.00394184 0.00537419 0
0.00480218 0.00489664 0
0.00480848 0.00538272 0
0.00437635 0.00488769 0
0.00437592 0.00537708 0
0.00522869 0.00490747 0
0.00524134 0.00539058 0
0.00480218 0.00489664 0
0.00480848 0.00538272 0
0.00565722 0.00491981 0
0.0056761 0.00540032 0
0.00522869 0.00490747 0
0.00524134 0.00539058 0
0.00608902 0.00493357 0
0.00611429 0.00541185 0
0.00565722 0.00491981 0
0.0056761 0.00540032 0
0.00652536 0.00494895 0
0.00655744 0.00542525 0
0.00608902 0.00493357 0
0.00611429 0.00541185 0
0.00696767 0.00496637 0
0.00700722 0.00544084 0
0.00652536 0.00494895 0
0.00655744 0.00542525 0
0.00741762 0.00498649 0
0.00746553 0.00545912 0
0.00696767 0.00496637 0
0.00700722 0.00544084 0
0.00787728 0.00501017 0
0.00793462 0.00548071 0
0.00741762 0.00498649 0
0.00746553 0.00545912 0
0.00175906 0.00442063 0
0.00170885 0.00491946 0
0.00127 0.00444316 0
0.00121967 0.00493954 0
0.00222695 0.00440115 0
0.00218227 0.00490151 0
0.00175906 0.00442063 0
0.00170885 0.00491946 0
0.00267497 0.00438898 0
0.00263985 0.00488806 0
0.00222695 0.00440115 0
0.00218227 0.00490151 0
0.00310881 0.00438509 0
0.00308443 0.00488044 0
0.00267497 0.00438898 0
0.00263985 0.00488806 0
0.00353415 0.00438822 0
0.00351985 0.00487852 0
0.00310881 0.00438509 0
0.00308443 0.00488044 0
0.00395507 0.00439627 0
0.00394959 0.00488133 0
0.00353415 0.00438822 0
0.00351985 0.00487852 0
0.00437417 0.00440748 0
0.00437635 0.00488769 0
0.00395507 0.00439627 0
0.00394959 0.00488133 0
0.00479317 0.00442063 0
0.00480218 0.00489664 0
0.00437417 0.00440748 0
0.00437635 0.00488769 0
0.00521332 0.004435 0
0.00522869 0.00490747 0
0.00479317 0.00442063 0
0.00480218 0.00489664 0
0.0056356 0.00445026 0
0.00565722 0.00491981 0
0.00521332 0.004435 0
0.00522869 0.00490747 0
0.00606093 0.00446642 0
0.00608902 0.00493357 0
0.0056356 0.00445026 0
0.00565722 0.00491981 0
0.00649027 0.00448378 0
0.00652536 0.00494895 0
0.00606093 0.00446642 0
0.00608902 0.00493357 0
0.00692473 0.00450294 0
0.00696767 0.00496637 0
0.00649027 0.00448378 0
0.00652536 0.00494895 0
0.00736569 0.00452473 0
0.00741762 0.00498649 0
0.00692473 0.00450294 0
0.00696767 0.00496637 0
0.00781492 0.00455025 0
0.00787728 0.00501017 0
0.00736569 0.00452473 0
0.00741762 0.00498649 0
0.00181782 0.00391702 0
0.00175906 0.00442063 0
0.00132681 0.00394308 0
0.00127 0.00444316 0
0.00227668 0.0038977 0
0.00222695 0.00440115 0
0.00181782 0.00391702 0
0.00175906 0.00442063 0
0.00271059 0.00389035 0
0.00267497 0.00438898 0
0.00227668 0.0038977 0
0.00222695 0.00440115 0
0.00313072 0.00389462 0
0.00310881 0.00438509 0
0.00271059 0.00389035 0
0.00267497 0.00438898 0
0.0035449 0.00390602 0
0.00353415 0.00438822 0
0.00313072 0.00389462 0
0.00310881 0.00438509 0
0.00395679 0.00392138 0
0.00395507 0.00439627 0
0.0035449 0.00390602 0
0.00353415 0.00438822 0
0.0043684 0.00393867 0
0.00437417 0.00440748 0
0.00395679 0.00392138 0
0.00395507 0.00439627 0
0.00478087 0.00395675 0
0.00479317 0.00442063 0
0.0043684 0.00393867 0
0.00437417 0.00440748 0
0.00519495 0.00397502 0
0.00521332 0.004435 0
0.00478087 0.00395675 0
0.00479317 0.00442063 0
0.00561121 0.00399335 0
0.0056356 0.00445026 0
0.00519495 0.00397502 0
0.00521332 0.004435 0
0.00603019 0.0040119 0
0.00606093 0.00446642 0
0.00561121 0.00399335 0
0.0056356 0.00445026 0
0.00645249 0.00403116 0
0.00649027 0.00448378 0
0.00603019 0.0040119 0
0.00606093 0.00446642 0
0.00687886 0.00405187 0
0.00692473 0.00450294 0
0.00645249 0.00403116 0
0.00649027 0.00448378 0
0.00731031 0.00407508 0
0.00736569 0.00452473 0
0.00687886 0.00405187 0
0.00692473 0.00450294 0
0.00774824 0.00410214 0
0.00781492 0.00455025 0
0.00731031 0.00407508 0
0.00736569 0.00452473 0
0.00188837 0.00340227 0
0.00181782 0.00391702 0
0.00139357 0.00342978 0
0.00132681 0.00394308 0
0.00232889 0.00338661 0
0.00227668 0.0038977 0
0.00188837 0.00340227 0
0.00181782 0.00391702 0
0.00274123 0.00339448 0
0.00271059 0.00389035 0
0.00232889 0.00338661 0
0.00227668 0.0038977 0
0.00314651 0.00341293 0
0.00313072 0.00389462 0
0.00274123 0.00339448 0
0.00271059 0.00389035 0
0.00354978 0.00343582 0
0.0035449 0.00390602 0
0.00314651 0.00341293 0
0.00313072 0.00389462 0
0.00395341 0.00346004 0
0.00395679 0.00392138 0
0.00354978 0.00343582 0
0.0035449 0.00390602 0
0.00435832 0.00348409 0
0.0043684 0.00393867 0
0.00395341 0.00346004 0
0.00395679 0.00392138 0
0.00476496 0.0035073 0
0.00478087 0.00395675 0
0.00435832 0.00348409 0
0.0043684 0.00393867 0
0.00517353 0.00352947 0
0.00519495 0.00397502 0
0.00476496 0.0035073 0
0.00478087 0.00395675 0
0.00558418 0.00355072 0
0.00561121 0.00399335 0
0.00517353 0.00352947 0
0.00519495 0.00397502 0
0.00599708 0.00357146 0
0.00603019 0.0040119 0
0.00558418 0.00355072 0
0.00561121 0.00399335 0
0.00641244 0.00359237 0
0.00645249 0.00403116 0
0.00599708 0.00357146 0
0.00603019 0.0040119 0
0.00683063 0.00361436 0
0.00687886 0.00405187 0
0.00641244 0.00359237 0
0.00645249 0.00403116 0
0.00725223 0.00363866 0
0.00731031 0.00407508 0
0.00683063 0.00361436 0
0.00687886 0.00405187 0
0.00767815 0.00366687 0
0.00774824 0.00410214 0
0.00725223 0.00363866 0
0.00731031 0.00407508 0
0.00197301 0.00285327 0
0.00188837 0.00340227 0
0.00148915 0.00289775 0
0.00139357 0.00342978 0
0.0023679 0.0028754 0
0.00232889 0.00338661 0
0.00197301 0.00285327 0
0.00188837 0.00340227 0
0.00276036 0.00291082 0
0.00274123 0.00339448 0
0.0023679 0.0028754 0
0.00232889 0.00338661 0
0.00315264 0.00294783 0
0.00314651 0.00341293 0
0.00276036 0.00291082 0
0.00274123 0.00339448 0
0.0035472 0.00298335 0
0.00354978 0.00343582 0
0.00315264 0.00294783 0
0.00314651 0.00341293 0
0.00394424 0.00301643 0
0.00395341 0.00346004 0
0.0035472 0.00298335 0
0.00354978 0.00343582 0
0.00434374 0.00304683 0
0.00435832 0.00348409 0
0.00394424 0.00301643 0
0.00395341 0.00346004 0
0.0047455 0.00307464 0
0.00476496 0.0035073 0
0.00434374 0.00304683 0
0.00435832 0.00348409 0
0.0051493 0.00310016 0
0.00517353 0.00352947 0
0.0047455 0.00307464 0
0.00476496 0.0035073 0
0.00555489 0.00312385 0
0.00558418 0.00355072 0
0.0051493 0.00310016 0
0.00517353 0.00352947 0
0.00596208 0.00314635 0
0.00599708 0.00357146 0
0.00555489 0.00312385 0
0.00558418 0.00355072 0
0.00637072 0.00316851 0
0.00641244 0.00359237 0
0.00596208 0.00314635 0
0.00599708 0.00357146 0
0.00678077 0.00319138 0
0.00683063 0.00361436 0
0.00637072 0.00316851 0
0.00641244 0.00359237 0
0.00719234 0.00321638 0
0.00725223 0.00363866 0
0.00678077 0.00319138 0
0.00683063 0.00361436 0
0.00760576 0.00324526 0
0.00767815 0.00366687 0
0.00719234 0.00321638 0
0.00725223 0.00363866 0
0.00200897 0.00231422 0
0.00197301 0.00285327 0
0.00166494 0.00221006 0
0.00148915 0.00289775 0
0.00238505 0.00239496 0
0.0023679 0.0028754 0
0.00200897 0.00231422 0